LAMMPS Description
31 atoms
31 bonds
40 angles
62 dihedrals
8 impropers
12 atom types
18 bond types
22 angle types
12 dihedral types
4 improper types
0.0 20 xlo xhi
0.0 20 ylo yhi
0.0 20 zlo zhi

Masses

1 12.01  # c
2 12.01  # c1
3 12.01  # c2
4 12.01  # ca
5 1.008  # ha
6 1.008  # hn
7 1.008  # ho
8 14.01  # n
9 14.01  # n2
10 14.01  # nh
11 16.00  # o
12 16.00  # oh

Atoms

1 1 9 -0.575 2.849999964237213 0.7999999821186066 -0.07000000216066837
2 1 4 -0.456 4.900000095367432 1.7900000512599945 0.6700000166893005
3 1 4 0.16 4.1999998688697815 0.7199999690055847 0.12000000104308128
4 1 4 -0.031 6.28000020980835 1.7100000381469727 0.8600000292062759
5 1 4 -0.456 6.9599997997283936 0.5499999970197678 0.4899999871850014
6 1 4 0.16 6.269999742507935 -0.5299999937415123 -0.07000000216066837
7 1 4 -0.425 4.8899999260902405 -0.4399999976158142 -0.2500000037252903
8 1 5 0.04 4.370000064373016 2.7000001072883606 0.9700000286102295
9 1 5 0.009 6.819999814033508 2.540000081062317 1.289999932050705
10 1 5 0.04 8.040000200271606 0.4899999871850014 0.6400000303983688
11 1 5 0.075 4.350000023841858 -1.2800000607967377 -0.689999982714653
12 1 6 0.017 2.409999966621399 1.6599999368190765 0.2199999988079071
13 1 9 -0.575 6.940000057220459 -1.6599999368190765 -0.43000001460313797
14 1 6 0.017 7.940000295639038 -1.6599999368190765 -0.27000000700354576
15 2 4 0.1115 -8.700000047683716 2.5299999117851257 -0.04999999888241291
16 2 4 -0.099 -7.4400001764297485 3.149999976158142 -0.010000000474974513
17 2 4 0.1115 -6.290000081062317 2.3600000143051147 0.020000000949949026
18 2 4 -0.1765 -8.790000081062317 1.1400000005960464 -0.07000000216066837
19 2 4 0.101 -7.630000114440918 0.35999998450279236 -0.04000000189989805
20 2 4 -0.1765 -6.380000114440918 0.9700000286102295 0.010000000474974513
21 2 5 0.24 -9.610000252723694 3.1200000643730164 -0.07000000216066837
22 2 5 0.24 -5.31000018119812 2.8299999237060547 0.04999999888241291
23 2 5 0.209 -7.710000276565552 -0.7299999892711639 -0.04999999888241291
24 2 2 0.473 -10.140000581741333 0.5000000074505806 -0.10999999940395355
25 2 2 0.473 -5.130000114440918 0.1600000075995922 0.04000000189989805
26 2 3 0.34 -7.310000061988831 4.650000035762787 0.010000000474974513
27 2 11 -0.255 -6.240000128746033 5.230000019073486 0.04999999888241291
28 2 11 0.1975 -10.34000039100647 -0.7000000029802322 -0.13000000268220901
29 2 11 0.1975 -5.099999904632568 -1.0599999874830246 0.03000000026077032
30 2 12 -0.297 -8.429999947547913 5.320000052452087 -0.020000000949949026
31 2 7 0.31 -8.180000185966492 6.259999871253967 0.0

Bonds

1 8 1 3
2 6 2 3
3 6 2 4
4 6 3 7
5 6 4 5
6 6 5 6
7 6 6 7
8 8 6 13
9 15 1 12
10 7 2 8
11 7 4 9
12 7 5 10
13 7 7 11
14 15 13 14
15 6 15 16
16 6 15 18
17 6 16 17
18 3 16 26
19 6 17 20
20 6 18 19
21 1 18 24
22 6 19 20
23 1 20 25
24 2 24 28
25 2 25 29
26 4 26 27
27 5 26 30
28 7 15 21
29 7 17 22
30 7 19 23
31 18 30 31

Angles

1 1 27 26 30
2 2 15 18 24
3 2 19 18 24
4 2 17 20 25
5 2 19 20 25
6 3 15 16 26
7 3 17 16 26
8 4 2 3 7
9 4 2 4 5
10 4 3 2 4
11 4 3 7 6
12 4 4 5 6
13 4 5 6 7
14 4 15 16 17
15 4 15 18 19
16 4 16 15 18
17 4 16 17 20
18 4 17 20 19
19 4 18 19 20
20 5 2 4 9
21 5 3 2 8
22 5 3 7 11
23 5 4 2 8
24 5 4 5 10
25 5 5 4 9
26 5 6 5 10
27 5 6 7 11
28 5 16 15 21
29 5 16 17 22
30 5 18 15 21
31 5 18 19 23
32 5 20 17 22
33 5 20 19 23
34 6 1 3 2
35 6 5 6 13
36 6 1 3 7
37 6 7 6 13
38 15 3 1 12
39 15 6 13 14
40 21 26 30 31

Dihedrals

1 4 15 18 24 28
2 4 19 18 24 28
3 4 17 20 25 29
4 4 19 20 25 29
5 5 15 16 26 27
6 5 17 16 26 27
7 5 15 16 26 30
8 5 17 16 26 30
9 6 16 26 30 31
10 6 27 26 30 31
11 7 1 3 2 4
12 7 1 3 7 6
13 7 4 5 6 13
14 7 3 7 6 13
15 7 1 3 2 8
16 7 1 3 7 11
17 7 10 5 6 13
18 7 11 7 6 13
19 7 2 3 7 6
20 7 2 4 5 6
21 7 3 2 4 5
22 7 3 7 6 5
23 7 4 2 3 7
24 7 4 5 6 7
25 7 15 16 17 20
26 7 15 18 19 20
27 7 16 15 18 19
28 7 16 17 20 19
29 7 17 16 15 18
30 7 17 20 19 18
31 7 2 3 7 11
32 7 2 4 5 10
33 7 3 2 4 9
34 7 5 4 2 8
35 7 5 6 7 11
36 7 6 5 4 9
37 7 7 3 2 8
38 7 7 6 5 10
39 7 15 16 17 22
40 7 15 18 19 23
41 7 17 16 15 21
42 7 17 20 19 23
43 7 19 18 15 21
44 7 19 20 17 22
45 7 8 2 4 9
46 7 9 4 5 10
47 7 16 15 18 24
48 7 16 17 20 25
49 7 18 19 20 25
50 7 20 19 18 24
51 7 18 15 16 26
52 7 20 17 16 26
53 7 21 15 16 26
54 7 22 17 16 26
55 7 21 15 18 24
56 7 22 17 20 25
57 7 23 19 18 24
58 7 23 19 20 25
59 9 2 3 1 12
60 9 5 6 13 14
61 9 7 3 1 12
62 9 7 6 13 14

Impropers

1 2 2 5 4 9
2 2 3 4 2 8
3 2 3 6 7 11
4 2 4 6 5 10
5 2 16 18 15 21
6 2 16 20 17 22
7 2 18 20 19 23
8 4 15 17 16 26
