LAMMPS Description
29 atoms
29 bonds
41 angles
58 dihedrals
7 impropers
7 atom types
9 bond types
12 angle types
6 dihedral types
3 improper types
0.0 20 xlo xhi
0.0 20 ylo yhi
0.0 20 zlo zhi

Masses

1 12.01  # c
2 12.01  # ca
3 1.008  # ha
4 1.008  # hn
5 14.01  # n
6 14.01  # nh
7 16.00  # o

Atoms

1 1 6 -0.8202 2.849999964237213 0.7999999821186066 -0.07000000216066837
2 1 2 -0.23 4.900000095367432 1.7900000512599945 0.6700000166893005
3 1 2 0.1716 4.1999998688697815 0.7199999690055847 0.12000000104308128
4 1 2 -0.06 6.28000020980835 1.7100000381469727 0.8600000292062759
5 1 2 -0.23 6.9599997997283936 0.5499999970197678 0.4899999871850014
6 1 2 0.1716 6.269999742507935 -0.5299999937415123 -0.07000000216066837
7 1 2 -0.253 4.8899999260902405 -0.4399999976158142 -0.2500000037252903
8 1 3 0.13 4.370000064373016 2.7000001072883606 0.9700000286102295
9 1 3 0.127 6.819999814033508 2.540000081062317 1.289999932050705
10 1 3 0.13 8.040000200271606 0.4899999871850014 0.6400000303983688
11 1 3 0.13 4.350000023841858 -1.2800000607967377 -0.689999982714653
12 1 4 0.3883 2.409999966621399 1.6599999368190765 0.2199999988079071
13 1 6 -0.8202 6.940000057220459 -1.6599999368190765 -0.43000001460313797
14 1 4 0.3883 7.940000295639038 -1.6599999368190765 -0.27000000700354576
15 2 2 0.01 -8.669999837875366 2.5600001215934753 -0.04999999888241291
16 2 2 -0.190267 -7.409999966621399 3.1600001454353333 -0.010000000474974513
17 2 2 0.01 -6.269999742507935 2.3499999940395355 0.020000000949949026
18 2 2 -0.190267 -8.799999952316284 1.1699999868869781 -0.06000000052154064
19 2 2 0.01 -7.6499998569488525 0.3700000047683716 -0.04000000189989805
20 2 2 -0.190267 -6.380000114440918 0.9600000083446503 0.010000000474974513
21 2 3 0.181 -9.559999704360962 3.190000057220459 -0.07000000216066837
22 2 3 0.181 -5.2799999713897705 2.8099998831748962 0.04999999888241291
23 2 3 0.181 -7.739999890327454 -0.7100000232458115 -0.04999999888241291
24 2 1 0.587967 -10.160000324249268 0.560000017285347 -0.10999999940395355
25 2 1 0.587967 -5.1499998569488525 0.13000000268220901 0.04000000189989805
26 2 1 0.587967 -7.300000190734863 4.639999866485596 0.010000000474974513
27 2 7 -0.471767 -6.25 5.260000228881836 0.04999999888241291
28 2 7 -0.471767 -10.379999876022339 -0.6300000101327896 -0.13000000268220901
29 2 7 -0.471767 -5.139999985694885 -1.0899999737739563 0.03000000026077032

Bonds

1 4 1 3
2 1 2 3
3 1 2 4
4 1 3 7
5 1 4 5
6 1 5 6
7 1 6 7
8 4 6 13
9 9 1 12
10 2 2 8
11 2 4 9
12 2 5 10
13 2 7 11
14 9 13 14
15 1 15 16
16 1 15 18
17 1 16 17
18 5 16 26
19 1 17 20
20 1 18 19
21 5 18 24
22 1 19 20
23 5 20 25
24 7 24 28
25 7 25 29
26 7 26 27
27 2 15 21
28 2 17 22
29 2 19 23

Angles

1 1 2 3 7
2 1 2 4 5
3 1 3 2 4
4 1 3 7 6
5 1 4 5 6
6 1 5 6 7
7 1 15 16 17
8 1 15 18 19
9 1 16 15 18
10 1 16 17 20
11 1 17 20 19
12 1 18 19 20
13 2 2 4 9
14 2 3 2 8
15 2 3 7 11
16 2 4 2 8
17 2 4 5 10
18 2 5 4 9
19 2 6 5 10
20 2 6 7 11
21 2 16 15 21
22 2 16 17 22
23 2 18 15 21
24 2 18 19 23
25 2 20 17 22
26 2 20 19 23
27 4 1 3 2
28 4 5 6 13
29 4 1 3 7
30 4 7 6 13
31 5 15 18 24
32 5 19 18 24
33 5 17 20 25
34 5 19 20 25
35 5 15 16 26
36 5 17 16 26
37 7 16 26 27
38 7 18 24 28
39 7 20 25 29
40 12 3 1 12
41 12 6 13 14

Dihedrals

1 1 15 16 26 27
2 1 17 16 26 27
3 1 15 18 24 28
4 1 19 18 24 28
5 1 17 20 25 29
6 1 19 20 25 29
7 3 1 3 2 4
8 3 1 3 7 6
9 3 4 5 6 13
10 3 3 7 6 13
11 3 1 3 2 8
12 3 1 3 7 11
13 3 10 5 6 13
14 3 11 7 6 13
15 3 2 3 7 6
16 3 2 4 5 6
17 3 3 2 4 5
18 3 3 7 6 5
19 3 4 2 3 7
20 3 4 5 6 7
21 3 15 16 17 20
22 3 15 18 19 20
23 3 16 15 18 19
24 3 16 17 20 19
25 3 17 16 15 18
26 3 17 20 19 18
27 3 2 3 7 11
28 3 2 4 5 10
29 3 3 2 4 9
30 3 5 4 2 8
31 3 5 6 7 11
32 3 6 5 4 9
33 3 7 3 2 8
34 3 7 6 5 10
35 3 15 16 17 22
36 3 15 18 19 23
37 3 17 16 15 21
38 3 17 20 19 23
39 3 19 18 15 21
40 3 19 20 17 22
41 3 8 2 4 9
42 3 9 4 5 10
43 3 16 15 18 24
44 3 16 17 20 25
45 3 18 15 16 26
46 3 18 19 20 25
47 3 20 17 16 26
48 3 20 19 18 24
49 3 21 15 16 26
50 3 21 15 18 24
51 3 22 17 16 26
52 3 22 17 20 25
53 3 23 19 18 24
54 3 23 19 20 25
55 5 2 3 1 12
56 5 5 6 13 14
57 5 7 3 1 12
58 5 7 6 13 14

Impropers

1 2 2 5 4 9
2 2 3 4 2 8
3 2 3 6 7 11
4 2 4 6 5 10
5 2 16 18 15 21
6 2 16 20 17 22
7 2 18 20 19 23
