LAMMPS Description
34 atoms
35 bonds
53 angles
76 dihedrals
11 impropers
9 atom types
11 bond types
16 angle types
8 dihedral types
3 improper types
0.0 20 xlo xhi
0.0 20 ylo yhi
0.0 20 zlo zhi

Masses

1 12.01  # c
2 12.01  # ca
3 1.008  # ha
4 1.008  # hn
5 1.008  # ho
6 14.01  # n
7 14.01  # nh
8 16.00  # o
9 16.00  # oh

Atoms

1 1 2 -0.1581 -1.3199999928474426 1.809999942779541 -0.48000000417232513
2 1 2 0.008 -2.3000000417232513 0.8600000292062759 -0.17000000923871994
3 1 2 -0.006 0.020000000949949026 1.4800000190734863 -0.28999999165534973
4 1 2 -0.1766 0.3999999910593033 0.2199999988079071 0.1899999938905239
5 1 2 -0.006 -0.5900000035762787 -0.7100000232458115 0.4899999871850014
6 1 2 -0.1581 -1.9499999284744263 -0.4100000113248825 0.3099999949336052
7 1 3 0.184 -3.3500000834465027 1.1100000143051147 -0.3099999949336052
8 1 3 0.178 0.7800000160932541 2.2200000286102295 -0.5400000140070915
9 1 3 0.178 -0.3099999949336052 -1.6899999976158142 0.8600000292062759
10 1 1 0.6807 1.850000023841858 -0.14999999664723873 0.39000000804662704
11 1 8 -0.5761 2.1699999272823334 -1.25 0.820000022649765
12 1 6 -0.4651 2.7700001001358032 0.7900000363588333 0.09999999776482582
13 1 2 -0.223 4.900000095367432 1.770000010728836 0.7599999755620956
14 1 2 0.0996 4.189999997615814 0.689999982714653 0.23000000044703484
15 1 2 -0.067 6.290000081062317 1.7100000381469727 0.8799999952316284
16 1 2 -0.215 6.980000138282776 0.5700000002980232 0.46000000089406967
17 1 2 0.1686 6.28000020980835 -0.5099999904632568 -0.08999999612569809
18 1 2 -0.216 4.8899999260902405 -0.4399999976158142 -0.19999999552965164
19 1 3 0.13 4.370000064373016 2.6600000262260437 1.0899999737739563
20 1 3 0.131 6.840000152587891 2.549999952316284 1.2999999523162842
21 1 3 0.134 8.059999942779541 0.5299999937415123 0.5499999970197678
22 1 3 0.17 4.350000023841858 -1.2800000607967377 -0.6400000303983688
23 1 4 0.3215 2.4400000274181366 1.7000000178813934 -0.17000000923871994
24 1 1 0.6517 -1.6599999368190765 3.190000057220459 -1.0000000149011612
25 1 1 0.6517 -2.9600000381469727 -1.469999998807907 0.6599999964237213
26 1 8 -0.5425 -2.669999897480011 -2.5699999928474426 1.080000028014183
27 1 9 -0.6036 -4.21999990940094 -1.1500000208616257 0.48000000417232513
28 1 8 -0.5425 -0.820000022649765 4.020000100135803 -1.2700000405311584
29 1 9 -0.6036 -2.9199999570846558 3.4599998593330383 -1.1500000208616257
30 1 7 -0.8232 6.949999928474426 -1.6200000047683716 -0.5099999904632568
31 1 4 0.3948 7.919999957084656 -1.7200000584125519 -0.24000000208616257
32 1 4 0.3948 6.420000195503235 -2.450000047683716 -0.7199999690055847
33 1 5 0.453 -2.9600000381469727 4.379999935626984 -1.4900000393390656
34 1 5 0.453 -4.729999899864197 -1.940000057220459 0.7500000298023224

Bonds

1 1 1 2
2 1 1 3
3 5 1 24
4 1 2 6
5 1 3 4
6 1 4 5
7 5 4 10
8 1 5 6
9 5 6 25
10 7 10 11
11 6 10 12
12 3 12 14
13 1 13 14
14 1 13 15
15 1 14 18
16 1 15 16
17 1 16 17
18 1 17 18
19 4 17 30
20 7 24 28
21 8 24 29
22 7 25 26
23 8 25 27
24 2 2 7
25 2 3 8
26 2 5 9
27 9 12 23
28 2 13 19
29 2 15 20
30 2 16 21
31 2 18 22
32 11 27 34
33 11 29 33
34 10 30 31
35 10 30 32

Angles

1 1 1 2 6
2 1 1 3 4
3 1 2 1 3
4 1 2 6 5
5 1 3 4 5
6 1 4 5 6
7 1 13 14 18
8 1 13 15 16
9 1 14 13 15
10 1 14 18 17
11 1 15 16 17
12 1 16 17 18
13 2 1 2 7
14 2 1 3 8
15 2 4 3 8
16 2 4 5 9
17 2 6 2 7
18 2 6 5 9
19 2 13 15 20
20 2 14 13 19
21 2 14 18 22
22 2 15 13 19
23 2 15 16 21
24 2 16 15 20
25 2 17 16 21
26 2 17 18 22
27 3 12 14 13
28 3 12 14 18
29 4 16 17 30
30 4 18 17 30
31 5 3 4 10
32 5 5 4 10
33 5 2 1 24
34 5 3 1 24
35 5 2 6 25
36 5 5 6 25
37 6 4 10 12
38 7 1 24 28
39 7 4 10 11
40 7 6 25 26
41 8 1 24 29
42 8 6 25 27
43 9 11 10 12
44 10 26 25 27
45 10 28 24 29
46 11 14 12 23
47 12 10 12 14
48 13 10 12 23
49 14 17 30 31
50 14 17 30 32
51 15 31 30 32
52 16 24 29 33
53 16 25 27 34

Dihedrals

1 1 3 4 10 11
2 1 5 4 10 11
3 1 2 6 25 26
4 1 5 6 25 26
5 1 2 1 24 28
6 1 3 1 24 28
7 1 3 4 10 12
8 1 5 4 10 12
9 1 2 6 25 27
10 1 5 6 25 27
11 1 2 1 24 29
12 1 3 1 24 29
13 2 4 10 12 14
14 2 4 10 12 23
15 2 11 10 12 14
16 3 1 24 29 33
17 3 6 25 27 34
18 4 1 2 6 5
19 4 1 3 4 5
20 4 2 1 3 4
21 4 2 6 5 4
22 4 3 1 2 6
23 4 3 4 5 6
24 4 13 14 18 17
25 4 13 15 16 17
26 4 14 13 15 16
27 4 14 18 17 16
28 4 15 13 14 18
29 4 15 16 17 18
30 4 1 2 6 25
31 4 1 3 4 10
32 4 4 3 1 24
33 4 4 5 6 25
34 4 6 2 1 24
35 4 6 5 4 10
36 4 2 1 3 8
37 4 2 6 5 9
38 4 3 1 2 7
39 4 3 4 5 9
40 4 5 4 3 8
41 4 5 6 2 7
42 4 13 14 18 22
43 4 13 15 16 21
44 4 14 13 15 20
45 4 16 15 13 19
46 4 16 17 18 22
47 4 17 16 15 20
48 4 18 14 13 19
49 4 18 17 16 21
50 4 7 2 1 24
51 4 7 2 6 25
52 4 8 3 1 24
53 4 8 3 4 10
54 4 9 5 4 10
55 4 9 5 6 25
56 4 12 14 13 15
57 4 12 14 18 17
58 4 12 14 13 19
59 4 12 14 18 22
60 4 14 18 17 30
61 4 15 16 17 30
62 4 19 13 15 20
63 4 20 15 16 21
64 4 21 16 17 30
65 4 22 18 17 30
66 5 10 12 14 13
67 5 10 12 14 18
68 5 13 14 12 23
69 5 18 14 12 23
70 6 16 17 30 31
71 6 16 17 30 32
72 6 18 17 30 31
73 6 18 17 30 32
74 7 11 10 12 23
75 8 28 24 29 33
76 8 26 25 27 34

Impropers

1 1 1 28 24 29
2 1 6 26 25 27
3 1 4 11 10 12
4 2 1 6 2 7
5 2 1 4 3 8
6 2 4 6 5 9
7 2 13 16 15 20
8 2 14 15 13 19
9 2 14 17 18 22
10 2 15 17 16 21
11 3 10 14 12 23
