LAMMPS data file via write_data, version 29 Sep 2021, timestep = 100501

31 atoms
10 atom types
33 bonds
13 bond types
44 angles
12 angle types
78 dihedrals
7 dihedral types
12 impropers
3 improper types

0 20 xlo xhi
0 20 ylo yhi
0 20 zlo zhi

Masses

1 12.01
2 12.01
3 12.01
4 1.008
5 1.008
6 1.008
7 14.01
8 14.01
9 16
10 16

Atoms # full

12 1 5 0.234 15.7165510472355 16.920201507658827 6.148195573022076 -2 -1 -2
28 1 9 -0.336 15.469882188170828 15.164241395957102 5.477559405193972 -3 -1 -2
24 1 2 0.346 14.43625707039853 15.277238413110824 6.13437147921606 -3 -1 -2
1 1 7 -0.317 14.878153855848497 16.53400703433124 6.508873622461784 -2 -1 -2
22 1 4 0.169 11.79602711611543 13.505777548288124 10.35989550584817 -3 -1 -2
26 1 2 0.34 13.834847419315416 11.735474845717032 9.619410669536668 -3 -1 -2
30 1 10 -0.297 13.370014162988381 11.672822451409534 10.863284536650928 -3 -1 -2
31 1 6 0.31 13.919567741861396 10.961222426069664 11.260605733654538 -3 -1 -2
27 1 9 -0.255 14.675254823857376 10.941075694027909 9.273025818896604 -3 -1 -2
21 1 4 0.169 14.71263526076191 12.693879455284646 7.231258591040578 -3 -1 -2
16 1 3 -0.149 13.221297772652848 12.91487690764032 8.827469421555337 -3 -1 -2
23 1 4 0.17 12.170300218524414 16.312214021943753 7.111715219236336 -3 -1 -2
14 1 5 0.234 11.568355197641992 17.929761339718265 10.369731259291898 -2 -1 -2
11 1 4 0.129 13.162552991116204 18.02990640622527 7.796787805989245 -2 -1 -2
6 1 3 0.065 13.389448476920268 17.094105587244353 9.794823158786217 -2 -1 -2
13 1 7 -0.317 11.949311717128563 17.03628475860816 10.002588229132051 -2 -1 -2
29 1 9 -0.336 10.533037019955067 17.028353305445574 9.374709752990675 -3 -1 -2
25 1 2 0.346 11.110278042811565 15.941394089227469 9.513172360090792 -3 -1 -2
19 1 3 -0.089 12.362870490792941 15.236951503451738 7.408655263823146 -3 -1 -2
20 1 3 -0.101 11.86598356714721 14.914677219165508 8.710943994824554 -3 -1 -2
17 1 3 -0.047 12.267068071169131 13.757371406725305 9.357172883928756 -3 -1 -2
7 1 3 -0.193 13.796034987532725 17.47284556721313 8.493951892523008 -2 -1 -2
3 1 3 -0.09 14.895606184352925 16.776929140585178 7.9508904752815415 -2 -1 -2
5 1 3 -0.14 14.197215451997916 16.301241521491725 10.588149049198671 -2 -1 -2
8 1 4 0.179 16.537165962889404 15.510522251317283 8.183871625977421 -2 -1 -2
2 1 3 -0.14 15.712622119889323 16.015928515010337 8.670894211772001 -2 -1 -2
4 1 3 0.041 15.407586030183515 15.860457443114484 10.028776900972018 -2 -1 -2
9 1 4 0.009 16.091192160707507 15.311117996045224 10.68143174624138 -2 -1 -2
10 1 4 0.179 13.907213062653225 16.186674375391604 11.58805481207718 -2 -1 -2
15 1 3 -0.047 13.88466070452352 13.331853566275496 7.628183945640928 -3 -1 -2
18 1 3 -0.09 13.5195176600138 14.513721577120453 7.014755830673295 -3 -1 -2

Velocities

12 0.0001939314352500245 -0.009123486362020235 0.021155971602386317
28 -0.0010714989690914114 -0.002595469441832356 0.006329515403743882
24 -0.005018121761927679 -0.005732063916317093 0.0007985236395200085
1 0.004051037236317018 -0.003416986678818976 -0.0038634171809263334
22 -0.0031211812885541877 -0.00159224329503824 0.021681051488905236
26 0.0004051991624584058 -0.00039364317146604004 -0.0016146607250101127
30 -0.0010102988705626762 0.005784126097560554 -0.00629066297618021
31 0.012713811243755146 -0.004984757801826081 -0.007029130902996377
27 0.0017218143059555368 0.007902643822015777 -0.0014443855885658227
21 0.014293665839821994 0.003410164461967274 -0.0014013709056187376
16 -0.014125945064266981 -0.002254128885542127 -0.006542697531266146
23 0.019667176929174857 0.0036429180356148732 0.011843114567620891
14 0.005013283867419882 -0.0037388504572946194 0.010546480497556781
11 0.021784384401868525 -0.00925419897710253 -0.014743014734676627
6 -0.00010899022114693243 -0.0003601101529757127 0.003710739991279451
13 0.001288044914343674 -0.003136801306315551 -0.007147794758921867
29 -0.00494031001338022 -0.005215294363405956 0.002880591742495743
25 -0.006749112636968109 0.007419566690663882 -0.006436797119860209
19 -0.0027439838880827395 -0.0028282279703928824 0.003371465416398362
20 0.01050457251880375 -0.001553698424250214 0.007008464647848113
17 0.0033720443785643464 0.0022522986812509903 0.001635821088175002
7 0.0025997441899499028 0.008119801818858645 -0.00040825834501380804
3 0.004186366566099599 -0.0077058480537528845 0.0007848656443682766
5 -0.0017822665417589105 -0.0017610800224248852 -0.0002722363905431529
8 0.0035780528747469207 0.01634290472329056 -0.006615679682911041
2 -0.0010525526312119829 0.0004219324038806877 0.0032569551175289264
4 0.003154687793526747 0.0006153773946036326 0.0012512501351255054
9 0.01685963290943135 -0.012545101523747746 -0.011286854162988984
10 -0.010381767035093878 -0.013514049717693391 -0.013017030243360787
15 -0.0007140011412912659 0.002731396990131964 0.00021345179144178478
18 -0.0011398369338579183 0.002925141188453151 0.00035583971943413053

Bonds

1 4 24 1
2 5 24 28
3 12 1 12
4 10 1 3
5 5 26 27
6 6 26 30
7 13 30 31
8 7 16 17
9 3 16 26
10 7 6 7
11 12 13 14
12 10 13 6
13 4 25 13
14 5 25 29
15 7 19 20
16 8 19 23
17 3 20 25
18 7 17 20
19 8 17 22
20 8 7 11
21 7 3 7
22 7 5 6
23 8 5 10
24 7 2 3
25 7 2 4
26 8 2 8
27 7 4 5
28 8 4 9
29 7 15 16
30 7 15 18
31 8 15 21
32 7 18 19
33 3 18 24

Angles

1 10 24 1 12
2 11 3 1 12
3 9 24 1 3
4 1 27 26 30
5 12 26 30 31
6 3 15 16 26
7 3 17 16 26
8 4 15 16 17
9 4 5 6 7
10 7 13 6 7
11 7 13 6 5
12 10 25 13 14
13 11 6 13 14
14 9 25 13 6
15 4 18 19 20
16 5 18 19 23
17 5 20 19 23
18 4 17 20 19
19 3 19 20 25
20 3 17 20 25
21 4 16 17 20
22 5 16 17 22
23 5 20 17 22
24 4 3 7 6
25 5 3 7 11
26 5 6 7 11
27 4 2 3 7
28 7 1 3 7
29 7 1 3 2
30 4 4 5 6
31 5 4 5 10
32 5 6 5 10
33 4 3 2 4
34 5 3 2 8
35 5 4 2 8
36 4 2 4 5
37 5 2 4 9
38 5 5 4 9
39 4 16 15 18
40 5 16 15 21
41 5 18 15 21
42 4 15 18 19
43 3 19 18 24
44 3 15 18 24

Dihedrals

1 3 18 24 1 12
2 3 28 24 1 12
3 3 18 24 1 3
4 3 28 24 1 3
5 6 24 1 3 7
6 6 24 1 3 2
7 4 16 26 30 31
8 4 27 26 30 31
9 2 15 16 26 27
10 2 17 16 26 27
11 2 15 16 26 30
12 2 17 16 26 30
13 5 15 16 17 20
14 5 17 16 15 18
15 5 15 16 17 22
16 5 17 16 15 21
17 5 5 6 7 11
18 5 7 6 5 10
19 6 7 6 13 14
20 6 5 6 13 14
21 5 13 6 7 3
22 5 13 6 5 4
23 5 13 6 7 11
24 5 13 6 5 10
25 6 25 13 6 7
26 6 25 13 6 5
27 3 20 25 13 14
28 3 29 25 13 14
29 3 20 25 13 6
30 3 29 25 13 6
31 5 20 19 18 24
32 5 23 19 18 24
33 5 18 19 20 25
34 5 23 19 20 25
35 5 17 20 19 18
36 5 17 20 19 23
37 5 19 20 17 22
38 2 19 20 25 13
39 2 17 20 25 13
40 2 19 20 25 29
41 2 17 20 25 29
42 5 16 17 20 19
43 5 20 17 16 26
44 5 22 17 16 26
45 5 16 17 20 25
46 5 22 17 20 25
47 5 3 7 6 5
48 5 2 3 7 6
49 5 2 3 7 11
50 5 7 3 2 8
51 6 7 3 1 12
52 6 2 3 1 12
53 5 1 3 7 6
54 5 1 3 2 4
55 5 1 3 7 11
56 5 1 3 2 8
57 5 4 5 6 7
58 5 6 5 4 9
59 5 3 2 4 5
60 5 4 2 3 7
61 5 3 2 4 9
62 5 8 2 4 9
63 5 2 4 5 6
64 5 2 4 5 10
65 5 5 4 2 8
66 5 9 4 5 10
67 5 16 15 18 19
68 5 18 15 16 26
69 5 21 15 16 26
70 5 16 15 18 24
71 5 21 15 18 24
72 5 15 18 19 20
73 5 15 18 19 23
74 5 19 18 15 21
75 2 19 18 24 1
76 2 15 18 24 1
77 2 19 18 24 28
78 2 15 18 24 28

Impropers

1 1 3 6 7 11
2 1 4 6 5 10
3 2 25 6 13 14
4 1 16 20 17 22
5 1 18 20 19 23
6 3 15 17 16 26
7 3 19 17 20 25
8 2 24 3 1 12
9 1 2 5 4 9
10 1 3 4 2 8
11 3 19 15 18 24
12 1 16 18 15 21

bond_react_props_internal # i_limit_tags i_react_tags

12 0 0
28 0 0
24 0 0
1 0 0
22 0 0
26 0 0
30 0 0
31 0 0
27 0 0
21 0 0
16 0 0
23 0 0
14 0 0
11 0 0
6 0 0
13 0 0
29 0 0
25 0 0
19 0 0
20 0 0
17 0 0
7 0 0
3 0 0
5 0 0
8 0 0
2 0 0
4 0 0
9 0 0
10 0 0
15 0 0
18 0 0

bond_react_stabilization_internal # i_statted_tags

12 1
28 1
24 1
1 1
22 1
26 1
30 1
31 1
27 1
21 1
16 1
23 1
14 1
11 1
6 1
13 1
29 1
25 1
19 1
20 1
17 1
7 1
3 1
5 1
8 1
2 1
4 1
9 1
10 1
15 1
18 1
