LAMMPS Description

92  atoms
92  bonds
130  angles
184  dihedrals
22  impropers

71  atom types
807  bond types
4248  angle types
641  dihedral types
38  improper types

0 20.0 xlo xhi
0 20.0 ylo yhi
0 20.0 zlo zhi

Masses

1 12.01  # c
2 12.01  # c1
3 12.01  # c2
4 12.01  # c3
5 12.01  # ca
6 12.01  # cp
7 12.01  # cq
8 12.01  # cc
9 12.01  # cd
10 12.01  # ce
11 12.01  # cf
12 12.01  # cg
13 12.01  # ch
14 12.01  # cx
15 12.01  # cy
16 12.01  # cu
17 12.01  # cv
18 12.01  # cz
19 1.008  # h1
20 1.008  # h2
21 1.008  # h3
22 1.008  # h4
23 1.008  # h5
24 1.008  # ha
25 1.008  # hc
26 1.008  # hn
27 1.008  # ho
28 1.008  # hp
29 1.008  # hs
30 1.008  # hw
31 1.008  # hx
32 19.00  # f
33 35.45  # cl
34 79.90  # br
35 126.9  # i
36 14.01  # n
37 14.01  # n1
38 14.01  # n2
39 14.01  # n3
40 14.01  # n4
41 14.01  # na
42 14.01  # nb
43 14.01  # nc
44 14.01  # nd
45 14.01  # ne
46 14.01  # nf
47 14.01  # nh
48 14.01  # no
49 16.00  # o
50 16.00  # oh
51 16.00  # os
52 16.00  # ow
53 30.97  # p2
54 30.97  # p3
55 30.97  # p4
56 30.97  # p5
57 30.97  # pb
58 30.97  # pc
59 30.97  # pd
60 30.97  # pe
61 30.97  # pf
62 30.97  # px
63 30.97  # py
64 32.06  # s
65 32.06  # s2
66 32.06  # s4
67 32.06  # s6
68 32.06  # sh
69 32.06  # ss
70 32.06  # sx
71 32.06  # sy

Atoms

1 1 47 -0.8202 4.306 9.984 19.751
2 1 5 -0.23 4.880 7.663 19.828
3 1 5 0.1716 3.921 8.675 19.813
4 1 5 -0.06 4.485 6.328 19.892
5 1 5 -0.23 3.130 6.003 19.941
6 1 5 0.1716 2.168 7.012 19.927
7 1 5 -0.253 2.565 8.349 19.863
8 1 24 0.13 5.940 7.910 19.789
9 1 24 0.127 5.234 5.541 19.903
10 1 24 0.13 2.830 4.958 19.992
11 1 24 0.13 1.815 9.138 19.853
12 1 26 0.3883 5.305 10.159 19.717
13 1 47 -0.8202 0.842 6.695 19.976
14 1 26 0.3883 0.615 5.709 20.022
15 2 47 -0.8202 3.138 18.463 17.254
16 2 5 -0.23 1.444 17.270 16.058
17 2 5 0.1716 2.642 17.285 16.772
18 2 5 -0.06 0.939 16.067 15.567
19 2 5 -0.23 1.632 14.877 15.788
20 2 5 0.1716 2.831 14.889 16.501
21 2 5 -0.253 3.335 16.094 16.993
22 2 24 0.13 0.898 18.195 15.881
23 2 24 0.127 0.006 16.057 15.011
24 2 24 0.13 1.232 13.943 15.401
25 2 24 0.13 4.270 16.104 17.549
26 2 26 0.3883 2.591 19.295 17.062
27 2 47 -0.8202 3.510 13.725 16.719
28 2 26 0.3883 3.095 12.883 16.338
29 3 5 0.0115 15.818 14.348 5.023
30 3 5 -0.1576 15.502 13.388 4.053
31 3 5 0.0115 14.200 13.346 3.543
32 3 5 -0.1936 14.852 15.248 5.474
33 3 5 0.012 13.557 15.193 4.956
34 3 5 -0.1936 13.230 14.242 3.989
35 3 24 0.183 16.822 14.403 5.437
36 3 24 0.183 13.937 12.608 2.788
37 3 24 0.183 12.803 15.894 5.306
38 3 1 0.5898 15.222 16.256 6.509
39 3 1 0.5898 11.852 14.167 3.421
40 3 1 0.6507 16.525 12.406 3.549
41 3 49 -0.537 16.290 11.562 2.711
42 3 49 -0.4731 14.462 17.084 6.970
43 3 49 -0.4731 10.934 14.897 3.738
44 3 50 -0.6031 17.715 12.511 4.075
45 3 27 0.456 18.258 11.819 3.655
46 4 5 0.0115 13.250 15.096 7.643
47 4 5 -0.1576 13.620 14.008 6.843
48 4 5 0.0115 14.929 13.521 6.928
49 4 5 -0.1936 14.169 15.686 8.512
50 4 5 0.012 15.471 15.188 8.585
51 4 5 -0.1936 15.852 14.105 7.793
52 4 24 0.183 12.240 15.495 7.598
53 4 24 0.183 15.234 12.676 6.314
54 4 24 0.183 16.189 15.647 9.261
55 4 1 0.5898 13.742 16.844 9.349
56 4 1 0.5898 17.239 13.558 7.857
57 4 1 0.6507 12.648 13.354 5.899
58 4 49 -0.537 12.931 12.411 5.191
59 4 49 -0.4731 14.458 17.429 10.136
60 4 49 -0.4731 18.120 13.989 8.573
61 4 50 -0.6031 11.448 13.867 5.879
62 4 27 0.456 10.942 13.345 5.230
63 5 5 0.01 8.428 12.699 4.894
64 5 5 -0.190267 8.067 12.906 3.563
65 5 5 0.01 8.168 14.184 3.011
66 5 5 -0.190267 8.888 13.760 5.674
67 5 5 0.01 8.986 15.036 5.116
68 5 5 -0.190267 8.627 15.251 3.783
69 5 24 0.181 8.350 11.703 5.327
70 5 24 0.181 7.889 14.352 1.972
71 5 24 0.181 9.345 15.866 5.721
72 5 1 0.587967 9.267 13.511 7.095
73 5 1 0.587967 8.726 16.607 3.170
74 5 1 0.587967 7.579 11.755 2.749
75 5 49 -0.471767 7.241 11.830 1.584
76 5 49 -0.471767 9.677 14.360 7.860
77 5 49 -0.471767 9.111 17.602 3.750
78 6 5 0.01 5.307 17.029 3.790
79 6 5 -0.190267 5.084 16.126 4.829
80 6 5 0.01 4.677 14.823 4.537
81 6 5 -0.190267 5.125 16.637 2.464
82 6 5 0.01 4.718 15.332 2.178
83 6 5 -0.190267 4.493 14.422 3.215
84 6 24 0.181 5.624 18.045 4.015
85 6 24 0.181 4.502 14.114 5.344
86 6 24 0.181 4.576 15.022 1.145
87 6 1 0.587967 5.370 17.622 1.370
88 6 1 0.587967 4.058 13.024 2.928
89 6 1 0.587967 5.285 16.569 6.240
90 6 49 -0.471767 5.118 15.862 7.214
91 6 49 -0.471767 5.242 17.387 0.186
92 6 49 -0.471767 3.869 12.573 1.817

Bonds

1 184 1 3
2 157 2 3
3 157 2 4
4 157 3 7
5 157 4 5
6 157 5 6
7 157 6 7
8 184 6 13
9 455 1 12
10 172 2 8
11 172 4 9
12 172 5 10
13 172 7 11
14 455 13 14
15 184 15 17
16 157 16 17
17 157 16 18
18 157 17 21
19 157 18 19
20 157 19 20
21 157 20 21
22 184 20 27
23 455 15 26
24 172 16 22
25 172 18 23
26 172 19 24
27 172 21 25
28 455 27 28
29 157 29 30
30 157 29 32
31 157 30 31
32 208 30 40
33 157 31 34
34 157 32 33
35 208 32 38
36 157 33 34
37 208 34 39
38 368 38 42
39 368 39 43
40 368 40 41
41 369 40 44
42 172 29 35
43 172 31 36
44 172 33 37
45 458 44 45
46 157 46 47
47 157 46 49
48 157 47 48
49 208 47 57
50 157 48 51
51 157 49 50
52 208 49 55
53 157 50 51
54 208 51 56
55 368 55 59
56 368 56 60
57 368 57 58
58 369 57 61
59 172 46 52
60 172 48 53
61 172 50 54
62 458 61 62
63 157 63 64
64 157 63 66
65 157 64 65
66 208 64 74
67 157 65 68
68 157 66 67
69 208 66 72
70 157 67 68
71 208 68 73
72 368 72 76
73 368 73 77
74 368 74 75
75 172 63 69
76 172 65 70
77 172 67 71
78 157 78 79
79 157 78 81
80 157 79 80
81 208 79 89
82 157 80 83
83 157 81 82
84 208 81 87
85 157 82 83
86 208 83 88
87 368 87 91
88 368 88 92
89 368 89 90
90 172 78 84
91 172 80 85
92 172 82 86

Angles

1 611 2 3 7
2 611 2 4 5
3 611 3 2 4
4 611 3 7 6
5 611 4 5 6
6 611 5 6 7
7 611 16 17 21
8 611 16 18 19
9 611 17 16 18
10 611 17 21 20
11 611 18 19 20
12 611 19 20 21
13 611 29 30 31
14 611 29 32 33
15 611 30 29 32
16 611 30 31 34
17 611 31 34 33
18 611 32 33 34
19 611 46 47 48
20 611 46 49 50
21 611 47 46 49
22 611 47 48 51
23 611 48 51 50
24 611 49 50 51
25 611 63 64 65
26 611 63 66 67
27 611 64 63 66
28 611 64 65 68
29 611 65 68 67
30 611 66 67 68
31 611 78 79 80
32 611 78 81 82
33 611 79 78 81
34 611 79 80 83
35 611 80 83 82
36 611 81 82 83
37 625 2 4 9
38 625 3 2 8
39 625 3 7 11
40 625 4 2 8
41 625 4 5 10
42 625 5 4 9
43 625 6 5 10
44 625 6 7 11
45 625 16 18 23
46 625 17 16 22
47 625 17 21 25
48 625 18 16 22
49 625 18 19 24
50 625 19 18 23
51 625 20 19 24
52 625 20 21 25
53 625 30 29 35
54 625 30 31 36
55 625 32 29 35
56 625 32 33 37
57 625 34 31 36
58 625 34 33 37
59 625 47 46 52
60 625 47 48 53
61 625 49 46 52
62 625 49 50 54
63 625 51 48 53
64 625 51 50 54
65 625 64 63 69
66 625 64 65 70
67 625 66 63 69
68 625 66 67 71
69 625 68 65 70
70 625 68 67 71
71 625 79 78 84
72 625 79 80 85
73 625 81 78 84
74 625 81 82 86
75 625 83 80 85
76 625 83 82 86
77 637 1 3 2
78 637 5 6 13
79 637 1 3 7
80 637 7 6 13
81 637 15 17 16
82 637 19 20 27
83 637 15 17 21
84 637 21 20 27
85 659 29 32 38
86 659 33 32 38
87 659 31 34 39
88 659 33 34 39
89 659 29 30 40
90 659 31 30 40
91 659 46 49 55
92 659 50 49 55
93 659 48 51 56
94 659 50 51 56
95 659 46 47 57
96 659 48 47 57
97 659 63 66 72
98 659 67 66 72
99 659 65 68 73
100 659 67 68 73
101 659 63 64 74
102 659 65 64 74
103 659 78 81 87
104 659 82 81 87
105 659 80 83 88
106 659 82 83 88
107 659 78 79 89
108 659 80 79 89
109 787 30 40 41
110 787 32 38 42
111 787 34 39 43
112 787 47 57 58
113 787 49 55 59
114 787 51 56 60
115 787 64 74 75
116 787 66 72 76
117 787 68 73 77
118 787 79 89 90
119 787 81 87 91
120 787 83 88 92
121 788 30 40 44
122 788 47 57 61
123 1390 41 40 44
124 1390 58 57 61
125 2670 3 1 12
126 2670 6 13 14
127 2670 17 15 26
128 2670 20 27 28
129 2846 40 44 45
130 2846 57 61 62

Dihedrals

1 13 29 30 40 41
2 13 31 30 40 41
3 13 29 32 38 42
4 13 33 32 38 42
5 13 31 34 39 43
6 13 33 34 39 43
7 13 46 47 57 58
8 13 48 47 57 58
9 13 46 49 55 59
10 13 50 49 55 59
11 13 48 51 56 60
12 13 50 51 56 60
13 13 63 64 74 75
14 13 65 64 74 75
15 13 63 66 72 76
16 13 67 66 72 76
17 13 65 68 73 77
18 13 67 68 73 77
19 13 78 79 89 90
20 13 80 79 89 90
21 13 78 81 87 91
22 13 82 81 87 91
23 13 80 83 88 92
24 13 82 83 88 92
25 13 29 30 40 44
26 13 31 30 40 44
27 13 46 47 57 61
28 13 48 47 57 61
29 24 30 40 44 45
30 24 47 57 61 62
31 195 1 3 2 4
32 195 1 3 7 6
33 195 4 5 6 13
34 195 3 7 6 13
35 195 15 17 16 18
36 195 15 17 21 20
37 195 18 19 20 27
38 195 17 21 20 27
39 195 1 3 2 8
40 195 1 3 7 11
41 195 10 5 6 13
42 195 11 7 6 13
43 195 15 17 16 22
44 195 15 17 21 25
45 195 24 19 20 27
46 195 25 21 20 27
47 195 2 3 7 6
48 195 2 4 5 6
49 195 3 2 4 5
50 195 3 7 6 5
51 195 4 2 3 7
52 195 4 5 6 7
53 195 16 17 21 20
54 195 16 18 19 20
55 195 17 16 18 19
56 195 17 21 20 19
57 195 18 16 17 21
58 195 18 19 20 21
59 195 29 30 31 34
60 195 29 32 33 34
61 195 30 29 32 33
62 195 30 31 34 33
63 195 31 30 29 32
64 195 31 34 33 32
65 195 46 47 48 51
66 195 46 49 50 51
67 195 47 46 49 50
68 195 47 48 51 50
69 195 48 47 46 49
70 195 48 51 50 49
71 195 63 64 65 68
72 195 63 66 67 68
73 195 64 63 66 67
74 195 64 65 68 67
75 195 65 64 63 66
76 195 65 68 67 66
77 195 78 79 80 83
78 195 78 81 82 83
79 195 79 78 81 82
80 195 79 80 83 82
81 195 80 79 78 81
82 195 80 83 82 81
83 195 2 3 7 11
84 195 2 4 5 10
85 195 3 2 4 9
86 195 5 4 2 8
87 195 5 6 7 11
88 195 6 5 4 9
89 195 7 3 2 8
90 195 7 6 5 10
91 195 16 17 21 25
92 195 16 18 19 24
93 195 17 16 18 23
94 195 19 18 16 22
95 195 19 20 21 25
96 195 20 19 18 23
97 195 21 17 16 22
98 195 21 20 19 24
99 195 29 30 31 36
100 195 29 32 33 37
101 195 31 30 29 35
102 195 31 34 33 37
103 195 33 32 29 35
104 195 33 34 31 36
105 195 46 47 48 53
106 195 46 49 50 54
107 195 48 47 46 52
108 195 48 51 50 54
109 195 50 49 46 52
110 195 50 51 48 53
111 195 63 64 65 70
112 195 63 66 67 71
113 195 65 64 63 69
114 195 65 68 67 71
115 195 67 66 63 69
116 195 67 68 65 70
117 195 78 79 80 85
118 195 78 81 82 86
119 195 80 79 78 84
120 195 80 83 82 86
121 195 82 81 78 84
122 195 82 83 80 85
123 195 8 2 4 9
124 195 9 4 5 10
125 195 22 16 18 23
126 195 23 18 19 24
127 195 30 29 32 38
128 195 30 31 34 39
129 195 32 29 30 40
130 195 32 33 34 39
131 195 34 31 30 40
132 195 34 33 32 38
133 195 47 46 49 55
134 195 47 48 51 56
135 195 49 46 47 57
136 195 49 50 51 56
137 195 51 48 47 57
138 195 51 50 49 55
139 195 64 63 66 72
140 195 64 65 68 73
141 195 66 63 64 74
142 195 66 67 68 73
143 195 68 65 64 74
144 195 68 67 66 72
145 195 79 78 81 87
146 195 79 80 83 88
147 195 81 78 79 89
148 195 81 82 83 88
149 195 83 80 79 89
150 195 83 82 81 87
151 195 35 29 30 40
152 195 35 29 32 38
153 195 36 31 30 40
154 195 36 31 34 39
155 195 37 33 32 38
156 195 37 33 34 39
157 195 52 46 47 57
158 195 52 46 49 55
159 195 53 48 47 57
160 195 53 48 51 56
161 195 54 50 49 55
162 195 54 50 51 56
163 195 69 63 64 74
164 195 69 63 66 72
165 195 70 65 64 74
166 195 70 65 68 73
167 195 71 67 66 72
168 195 71 67 68 73
169 195 84 78 79 89
170 195 84 78 81 87
171 195 85 80 79 89
172 195 85 80 83 88
173 195 86 82 81 87
174 195 86 82 83 88
175 209 2 3 1 12
176 209 5 6 13 14
177 209 7 3 1 12
178 209 7 6 13 14
179 209 16 17 15 26
180 209 19 20 27 28
181 209 21 17 15 26
182 209 21 20 27 28
183 615 41 40 44 45
184 615 58 57 61 62

Impropers

1 2 30 41 40 44
2 2 47 58 57 61
3 3 2 5 4 9
4 3 3 4 2 8
5 3 3 6 7 11
6 3 4 6 5 10
7 3 16 19 18 23
8 3 17 18 16 22
9 3 17 20 21 25
10 3 18 20 19 24
11 3 30 32 29 35
12 3 30 34 31 36
13 3 32 34 33 37
14 3 47 49 46 52
15 3 47 51 48 53
16 3 49 51 50 54
17 3 64 66 63 69
18 3 64 68 65 70
19 3 66 68 67 71
20 3 79 81 78 84
21 3 79 83 80 85
22 3 81 83 82 86

