LAMMPS Description
14 atoms
14 bonds
20 angles
28 dihedrals
4 impropers
10 atom types
13 bond types
12 angle types
7 dihedral types
3 improper types
0.0 50 xlo xhi
0.0 50 ylo yhi
0.0 50 zlo zhi

Masses

1 12.01  # c1
2 12.01  # c2
3 12.01  # ca
4 1.008  # ha
5 1.008  # hn
6 1.008  # ho
7 14.01  # n
8 14.01  # n2
9 16.00  # o
10 16.00  # oh

Atoms

1 1 8 -0.575 2.849999964237213 0.7999999821186066 -0.07000000216066837
2 1 3 -0.456 4.900000095367432 1.7900000512599945 0.6700000166893005
3 1 3 0.16 4.1999998688697815 0.7199999690055847 0.12000000104308128
4 1 3 -0.031 6.28000020980835 1.7100000381469727 0.8600000292062759
5 1 3 -0.456 6.9599997997283936 0.5499999970197678 0.4899999871850014
6 1 3 0.16 6.269999742507935 -0.5299999937415123 -0.07000000216066837
7 1 3 -0.425 4.8899999260902405 -0.4399999976158142 -0.2500000037252903
8 1 4 0.04 4.370000064373016 2.7000001072883606 0.9700000286102295
9 1 4 0.009 6.819999814033508 2.540000081062317 1.289999932050705
10 1 4 0.04 8.040000200271606 0.4899999871850014 0.6400000303983688
11 1 4 0.075 4.350000023841858 -1.2800000607967377 -0.689999982714653
12 1 5 0.017 2.409999966621399 1.6599999368190765 0.2199999988079071
13 1 8 -0.575 6.940000057220459 -1.6599999368190765 -0.43000001460313797
14 1 5 0.017 7.940000295639038 -1.6599999368190765 -0.27000000700354576

Bonds

1 9 1 3
2 7 2 3
3 7 2 4
4 7 3 7
5 7 4 5
6 7 5 6
7 7 6 7
8 9 6 13
9 11 1 12
10 8 2 8
11 8 4 9
12 8 5 10
13 8 7 11
14 11 13 14

Angles

1 4 2 3 7
2 4 2 4 5
3 4 3 2 4
4 4 3 7 6
5 4 4 5 6
6 4 5 6 7
7 5 2 4 9
8 5 3 2 8
9 5 3 7 11
10 5 4 2 8
11 5 4 5 10
12 5 5 4 9
13 5 6 5 10
14 5 6 7 11
15 6 1 3 2
16 6 5 6 13
17 6 1 3 7
18 6 7 6 13
19 8 3 1 12
20 8 6 13 14

Dihedrals

1 5 1 3 2 4
2 5 1 3 7 6
3 5 4 5 6 13
4 5 3 7 6 13
5 5 1 3 2 8
6 5 1 3 7 11
7 5 10 5 6 13
8 5 11 7 6 13
9 5 2 3 7 6
10 5 2 4 5 6
11 5 3 2 4 5
12 5 3 7 6 5
13 5 4 2 3 7
14 5 4 5 6 7
15 5 2 3 7 11
16 5 2 4 5 10
17 5 3 2 4 9
18 5 5 4 2 8
19 5 5 6 7 11
20 5 6 5 4 9
21 5 7 3 2 8
22 5 7 6 5 10
23 5 8 2 4 9
24 5 9 4 5 10
25 7 2 3 1 12
26 7 5 6 13 14
27 7 7 3 1 12
28 7 7 6 13 14

Impropers

1 1 2 5 4 9
2 1 3 4 2 8
3 1 3 6 7 11
4 1 4 6 5 10
