LAMMPS Description
15 atoms
15 bonds
18 angles
30 dihedrals
3 impropers
10 atom types
13 bond types
12 angle types
7 dihedral types
3 improper types
0.0 50 xlo xhi
0.0 50 ylo yhi
0.0 50 zlo zhi

Masses

1 12.01  # c1
2 12.01  # c2
3 12.01  # ca
4 1.008  # ha
5 1.008  # hn
6 1.008  # ho
7 14.01  # n
8 14.01  # n2
9 16.00  # o
10 16.00  # oh

Atoms

1 1 3 0.151 -8.669999837875366 2.5600001215934753 -0.04999999888241291
2 1 3 -0.139 -7.409999966621399 3.1600001454353333 -0.010000000474974513
3 1 3 0.151 -6.269999742507935 2.3499999940395355 0.020000000949949026
4 1 3 -0.139 -8.799999952316284 1.1699999868869781 -0.06000000052154064
5 1 3 0.151 -7.6499998569488525 0.3700000047683716 -0.04000000189989805
6 1 3 -0.139 -6.380000114440918 0.9600000083446503 0.010000000474974513
7 1 4 0.247 -9.559999704360962 3.190000057220459 -0.07000000216066837
8 1 4 0.247 -5.2799999713897705 2.8099998831748962 0.04999999888241291
9 1 4 0.247 -7.739999890327454 -0.7100000232458115 -0.04999999888241291
10 1 1 0.456 -10.160000324249268 0.560000017285347 -0.10999999940395355
11 1 1 0.456 -5.1499998569488525 0.13000000268220901 0.04000000189989805
12 1 1 0.456 -7.300000190734863 4.639999866485596 0.010000000474974513
13 1 9 0.285 -6.25 5.260000228881836 0.04999999888241291
14 1 9 0.285 -10.379999876022339 -0.6300000101327896 -0.13000000268220901
15 1 9 0.285 -5.139999985694885 -1.0899999737739563 0.03000000026077032

Bonds

1 7 1 2
2 7 1 4
3 7 2 3
4 1 2 12
5 7 3 6
6 7 4 5
7 1 4 10
8 7 5 6
9 1 6 11
10 2 10 14
11 2 11 15
12 2 12 13
13 8 1 7
14 8 3 8
15 8 5 9

Angles

1 2 1 4 10
2 2 5 4 10
3 2 3 6 11
4 2 5 6 11
5 2 1 2 12
6 2 3 2 12
7 4 1 2 3
8 4 1 4 5
9 4 2 1 4
10 4 2 3 6
11 4 3 6 5
12 4 4 5 6
13 5 2 1 7
14 5 2 3 8
15 5 4 1 7
16 5 4 5 9
17 5 6 3 8
18 5 6 5 9

Dihedrals

1 1 1 2 12 13
2 1 3 2 12 13
3 1 1 4 10 14
4 1 5 4 10 14
5 1 3 6 11 15
6 1 5 6 11 15
7 5 1 2 3 6
8 5 1 4 5 6
9 5 2 1 4 5
10 5 2 3 6 5
11 5 3 2 1 4
12 5 3 6 5 4
13 5 1 2 3 8
14 5 1 4 5 9
15 5 3 2 1 7
16 5 3 6 5 9
17 5 5 4 1 7
18 5 5 6 3 8
19 5 2 1 4 10
20 5 2 3 6 11
21 5 4 1 2 12
22 5 4 5 6 11
23 5 6 3 2 12
24 5 6 5 4 10
25 5 7 1 2 12
26 5 7 1 4 10
27 5 8 3 2 12
28 5 8 3 6 11
29 5 9 5 4 10
30 5 9 5 6 11

Impropers

1 1 2 4 1 7
2 1 2 6 3 8
3 1 4 6 5 9
