LAMMPS Description

92  atoms
92  bonds
116  angles
184  dihedrals
22  impropers

71  atom types
807  bond types
4248  angle types
641  dihedral types
38  improper types

0 10.0 xlo xhi
0 10.0 ylo yhi
0 10.0 zlo zhi

Masses

1 12.01  # c
2 12.01  # c1
3 12.01  # c2
4 12.01  # c3
5 12.01  # ca
6 12.01  # cp
7 12.01  # cq
8 12.01  # cc
9 12.01  # cd
10 12.01  # ce
11 12.01  # cf
12 12.01  # cg
13 12.01  # ch
14 12.01  # cx
15 12.01  # cy
16 12.01  # cu
17 12.01  # cv
18 12.01  # cz
19 1.008  # h1
20 1.008  # h2
21 1.008  # h3
22 1.008  # h4
23 1.008  # h5
24 1.008  # ha
25 1.008  # hc
26 1.008  # hn
27 1.008  # ho
28 1.008  # hp
29 1.008  # hs
30 1.008  # hw
31 1.008  # hx
32 19.00  # f
33 35.45  # cl
34 79.90  # br
35 126.9  # i
36 14.01  # n
37 14.01  # n1
38 14.01  # n2
39 14.01  # n3
40 14.01  # n4
41 14.01  # na
42 14.01  # nb
43 14.01  # nc
44 14.01  # nd
45 14.01  # ne
46 14.01  # nf
47 14.01  # nh
48 14.01  # no
49 16.00  # o
50 16.00  # oh
51 16.00  # os
52 16.00  # ow
53 30.97  # p2
54 30.97  # p3
55 30.97  # p4
56 30.97  # p5
57 30.97  # pb
58 30.97  # pc
59 30.97  # pd
60 30.97  # pe
61 30.97  # pf
62 30.97  # px
63 30.97  # py
64 32.06  # s
65 32.06  # s2
66 32.06  # s4
67 32.06  # s6
68 32.06  # sh
69 32.06  # ss
70 32.06  # sx
71 32.06  # sy

Atoms

1 1 38 -0.575 2.780 1.052 8.165
2 1 5 -0.456 3.504 1.007 5.885
3 1 5 0.16 2.896 1.669 6.952
4 1 5 -0.031 3.621 1.639 4.648
5 1 5 -0.456 3.131 2.933 4.476
6 1 5 0.16 2.523 3.598 5.541
7 1 5 -0.425 2.406 2.964 6.779
8 1 24 0.04 3.888 -0.003 6.012
9 1 24 0.009 4.095 1.122 3.818
10 1 24 0.04 3.226 3.419 3.508
11 1 24 0.075 1.931 3.481 7.611
12 1 26 0.017 3.155 0.111 8.230
13 1 38 -0.575 2.043 4.864 5.374
14 1 26 0.017 2.156 5.272 4.453
15 2 38 -0.575 0.885 9.553 5.345
16 2 5 -0.456 2.897 9.820 6.611
17 2 5 0.16 2.248 9.606 5.395
18 2 5 -0.031 4.289 9.874 6.660
19 2 5 -0.456 5.035 9.714 5.492
20 2 5 0.16 4.389 9.499 4.275
21 2 5 -0.425 2.995 9.445 4.227
22 2 24 0.04 2.321 9.946 7.526
23 2 24 0.009 4.792 10.041 7.608
24 2 24 0.04 6.121 9.756 5.539
25 2 24 0.075 2.491 9.277 3.278
26 2 26 0.017 0.396 9.676 6.226
27 2 38 -0.575 5.118 9.341 3.132
28 2 26 0.017 6.126 9.390 3.229
29 3 5 0.1115 9.065 4.832 5.353
30 3 5 -0.099 8.082 5.810 5.554
31 3 5 0.1115 6.947 5.484 6.304
32 3 5 -0.1765 8.916 3.554 5.890
33 3 5 0.101 7.777 3.243 6.635
34 3 5 -0.1765 6.791 4.208 6.843
35 3 24 0.24 9.957 5.059 4.775
36 3 24 0.24 6.174 6.230 6.471
37 3 24 0.209 7.659 2.246 7.055
38 3 2 0.473 9.981 2.536 5.656
39 3 2 0.473 5.566 3.896 7.637
40 3 3 0.34 8.219 7.197 4.987
41 3 49 -0.255 7.391 8.070 5.139
42 3 49 0.1975 9.952 1.396 6.076
43 3 49 0.1975 5.331 2.821 8.149
44 3 50 -0.297 9.306 7.422 4.301
45 3 27 0.31 9.252 8.348 4.003
46 4 5 0.1115 0.029 4.670 2.533
47 4 5 -0.099 0.001 5.655 3.528
48 4 5 0.1115 -0.014 5.261 4.870
49 4 5 -0.1765 0.043 3.317 2.872
50 4 5 0.101 0.027 2.939 4.216
51 4 5 -0.1765 -0.001 3.911 5.217
52 4 24 0.24 0.042 4.948 1.482
53 4 24 0.24 -0.036 6.012 5.656
54 4 24 0.209 0.038 1.884 4.483
55 4 2 0.473 0.073 2.293 1.788
56 4 2 0.473 -0.018 3.528 6.659
57 4 3 0.34 -0.013 7.121 3.189
58 4 49 -0.255 -0.038 8.003 4.021
59 4 49 0.1975 0.086 1.092 1.971
60 4 49 0.1975 -0.009 2.385 7.070
61 4 50 -0.297 0.003 7.406 1.915
62 4 27 0.31 -0.010 8.379 1.855
63 5 5 0.151 5.342 4.665 0.037
64 5 5 -0.139 6.277 5.699 0.075
65 5 5 0.151 7.640 5.397 0.118
66 5 5 -0.139 5.761 3.335 0.043
67 5 5 0.151 7.125 3.039 0.086
68 5 5 -0.139 8.067 4.071 0.123
69 5 24 0.247 4.280 4.898 0.004
70 5 24 0.247 8.374 6.200 0.146
71 5 24 0.247 7.455 2.003 0.090
72 5 2 0.456 4.739 2.248 0.003
73 5 2 0.456 9.528 3.773 0.169
74 5 2 0.456 5.805 7.115 0.067
75 5 49 0.285 6.536 8.085 0.098
76 5 49 0.285 4.994 1.060 0.004
77 5 49 0.285 10.007 2.658 0.178
78 6 5 0.151 1.526 4.471 9.993
79 6 5 -0.139 1.485 5.864 9.968
80 6 5 0.151 2.677 6.590 9.923
81 6 5 -0.139 2.749 3.801 9.974
82 6 5 0.151 3.938 4.532 9.929
83 6 5 -0.139 3.903 5.929 9.903
84 6 24 0.247 0.598 3.903 10.028
85 6 24 0.247 2.651 7.679 9.903
86 6 24 0.247 4.893 4.013 9.913
87 6 2 0.456 2.764 2.309 10.001
88 6 2 0.456 5.163 6.726 9.855
89 6 2 0.456 0.165 6.559 9.989
90 6 49 0.285 0.020 7.766 9.971
91 6 49 0.285 3.770 1.628 9.988
92 6 49 0.285 6.281 6.253 9.835

Bonds

1 175 1 3
2 157 2 3
3 157 2 4
4 157 3 7
5 157 4 5
6 157 5 6
7 157 6 7
8 175 6 13
9 450 1 12
10 172 2 8
11 172 4 9
12 172 5 10
13 172 7 11
14 450 13 14
15 175 15 17
16 157 16 17
17 157 16 18
18 157 17 21
19 157 18 19
20 157 19 20
21 157 20 21
22 175 20 27
23 450 15 26
24 172 16 22
25 172 18 23
26 172 19 24
27 172 21 25
28 450 27 28
29 157 29 30
30 157 29 32
31 157 30 31
32 70 30 40
33 157 31 34
34 157 32 33
35 35 32 38
36 157 33 34
37 35 34 39
38 55 38 42
39 55 39 43
40 98 40 41
41 99 40 44
42 172 29 35
43 172 31 36
44 172 33 37
45 458 44 45
46 157 46 47
47 157 46 49
48 157 47 48
49 70 47 57
50 157 48 51
51 157 49 50
52 35 49 55
53 157 50 51
54 35 51 56
55 55 55 59
56 55 56 60
57 98 57 58
58 99 57 61
59 172 46 52
60 172 48 53
61 172 50 54
62 458 61 62
63 157 63 64
64 157 63 66
65 157 64 65
66 35 64 74
67 157 65 68
68 157 66 67
69 35 66 72
70 157 67 68
71 35 68 73
72 55 72 76
73 55 73 77
74 55 74 75
75 172 63 69
76 172 65 70
77 172 67 71
78 157 78 79
79 157 78 81
80 157 79 80
81 35 79 89
82 157 80 83
83 157 81 82
84 35 81 87
85 157 82 83
86 35 83 88
87 55 87 91
88 55 88 92
89 55 89 90
90 172 78 84
91 172 80 85
92 172 82 86

Angles

1 255 41 40 44
2 255 58 57 61
3 601 29 32 38
4 601 33 32 38
5 601 31 34 39
6 601 33 34 39
7 601 46 49 55
8 601 50 49 55
9 601 48 51 56
10 601 50 51 56
11 601 63 66 72
12 601 67 66 72
13 601 65 68 73
14 601 67 68 73
15 601 63 64 74
16 601 65 64 74
17 601 78 81 87
18 601 82 81 87
19 601 80 83 88
20 601 82 83 88
21 601 78 79 89
22 601 80 79 89
23 603 29 30 40
24 603 31 30 40
25 603 46 47 57
26 603 48 47 57
27 611 2 3 7
28 611 2 4 5
29 611 3 2 4
30 611 3 7 6
31 611 4 5 6
32 611 5 6 7
33 611 16 17 21
34 611 16 18 19
35 611 17 16 18
36 611 17 21 20
37 611 18 19 20
38 611 19 20 21
39 611 29 30 31
40 611 29 32 33
41 611 30 29 32
42 611 30 31 34
43 611 31 34 33
44 611 32 33 34
45 611 46 47 48
46 611 46 49 50
47 611 47 46 49
48 611 47 48 51
49 611 48 51 50
50 611 49 50 51
51 611 63 64 65
52 611 63 66 67
53 611 64 63 66
54 611 64 65 68
55 611 65 68 67
56 611 66 67 68
57 611 78 79 80
58 611 78 81 82
59 611 79 78 81
60 611 79 80 83
61 611 80 83 82
62 611 81 82 83
63 625 2 4 9
64 625 3 2 8
65 625 3 7 11
66 625 4 2 8
67 625 4 5 10
68 625 5 4 9
69 625 6 5 10
70 625 6 7 11
71 625 16 18 23
72 625 17 16 22
73 625 17 21 25
74 625 18 16 22
75 625 18 19 24
76 625 19 18 23
77 625 20 19 24
78 625 20 21 25
79 625 30 29 35
80 625 30 31 36
81 625 32 29 35
82 625 32 33 37
83 625 34 31 36
84 625 34 33 37
85 625 47 46 52
86 625 47 48 53
87 625 49 46 52
88 625 49 50 54
89 625 51 48 53
90 625 51 50 54
91 625 64 63 69
92 625 64 65 70
93 625 66 63 69
94 625 66 67 71
95 625 68 65 70
96 625 68 67 71
97 625 79 78 84
98 625 79 80 85
99 625 81 78 84
100 625 81 82 86
101 625 83 80 85
102 625 83 82 86
103 628 1 3 2
104 628 5 6 13
105 628 1 3 7
106 628 7 6 13
107 628 15 17 16
108 628 19 20 27
109 628 15 17 21
110 628 21 20 27
111 1672 3 1 12
112 1672 6 13 14
113 1672 17 15 26
114 1672 20 27 28
115 2839 40 44 45
116 2839 57 61 62

Dihedrals

1 50 29 32 38 42
2 50 33 32 38 42
3 50 31 34 39 43
4 50 33 34 39 43
5 50 46 49 55 59
6 50 50 49 55 59
7 50 48 51 56 60
8 50 50 51 56 60
9 50 63 64 74 75
10 50 65 64 74 75
11 50 63 66 72 76
12 50 67 66 72 76
13 50 65 68 73 77
14 50 67 68 73 77
15 50 78 79 89 90
16 50 80 79 89 90
17 50 78 81 87 91
18 50 82 81 87 91
19 50 80 83 88 92
20 50 82 83 88 92
21 101 29 30 40 41
22 101 31 30 40 41
23 101 46 47 57 58
24 101 48 47 57 58
25 101 29 30 40 44
26 101 31 30 40 44
27 101 46 47 57 61
28 101 48 47 57 61
29 121 30 40 44 45
30 121 47 57 61 62
31 121 41 40 44 45
32 121 58 57 61 62
33 195 1 3 2 4
34 195 1 3 7 6
35 195 4 5 6 13
36 195 3 7 6 13
37 195 15 17 16 18
38 195 15 17 21 20
39 195 18 19 20 27
40 195 17 21 20 27
41 195 1 3 2 8
42 195 1 3 7 11
43 195 10 5 6 13
44 195 11 7 6 13
45 195 15 17 16 22
46 195 15 17 21 25
47 195 24 19 20 27
48 195 25 21 20 27
49 195 2 3 7 6
50 195 2 4 5 6
51 195 3 2 4 5
52 195 3 7 6 5
53 195 4 2 3 7
54 195 4 5 6 7
55 195 16 17 21 20
56 195 16 18 19 20
57 195 17 16 18 19
58 195 17 21 20 19
59 195 18 16 17 21
60 195 18 19 20 21
61 195 29 30 31 34
62 195 29 32 33 34
63 195 30 29 32 33
64 195 30 31 34 33
65 195 31 30 29 32
66 195 31 34 33 32
67 195 46 47 48 51
68 195 46 49 50 51
69 195 47 46 49 50
70 195 47 48 51 50
71 195 48 47 46 49
72 195 48 51 50 49
73 195 63 64 65 68
74 195 63 66 67 68
75 195 64 63 66 67
76 195 64 65 68 67
77 195 65 64 63 66
78 195 65 68 67 66
79 195 78 79 80 83
80 195 78 81 82 83
81 195 79 78 81 82
82 195 79 80 83 82
83 195 80 79 78 81
84 195 80 83 82 81
85 195 2 3 7 11
86 195 2 4 5 10
87 195 3 2 4 9
88 195 5 4 2 8
89 195 5 6 7 11
90 195 6 5 4 9
91 195 7 3 2 8
92 195 7 6 5 10
93 195 16 17 21 25
94 195 16 18 19 24
95 195 17 16 18 23
96 195 19 18 16 22
97 195 19 20 21 25
98 195 20 19 18 23
99 195 21 17 16 22
100 195 21 20 19 24
101 195 29 30 31 36
102 195 29 32 33 37
103 195 31 30 29 35
104 195 31 34 33 37
105 195 33 32 29 35
106 195 33 34 31 36
107 195 46 47 48 53
108 195 46 49 50 54
109 195 48 47 46 52
110 195 48 51 50 54
111 195 50 49 46 52
112 195 50 51 48 53
113 195 63 64 65 70
114 195 63 66 67 71
115 195 65 64 63 69
116 195 65 68 67 71
117 195 67 66 63 69
118 195 67 68 65 70
119 195 78 79 80 85
120 195 78 81 82 86
121 195 80 79 78 84
122 195 80 83 82 86
123 195 82 81 78 84
124 195 82 83 80 85
125 195 8 2 4 9
126 195 9 4 5 10
127 195 22 16 18 23
128 195 23 18 19 24
129 195 30 29 32 38
130 195 30 31 34 39
131 195 32 33 34 39
132 195 34 33 32 38
133 195 47 46 49 55
134 195 47 48 51 56
135 195 49 50 51 56
136 195 51 50 49 55
137 195 64 63 66 72
138 195 64 65 68 73
139 195 66 63 64 74
140 195 66 67 68 73
141 195 68 65 64 74
142 195 68 67 66 72
143 195 79 78 81 87
144 195 79 80 83 88
145 195 81 78 79 89
146 195 81 82 83 88
147 195 83 80 79 89
148 195 83 82 81 87
149 195 32 29 30 40
150 195 34 31 30 40
151 195 49 46 47 57
152 195 51 48 47 57
153 195 35 29 30 40
154 195 36 31 30 40
155 195 52 46 47 57
156 195 53 48 47 57
157 195 35 29 32 38
158 195 36 31 34 39
159 195 37 33 32 38
160 195 37 33 34 39
161 195 52 46 49 55
162 195 53 48 51 56
163 195 54 50 49 55
164 195 54 50 51 56
165 195 69 63 64 74
166 195 69 63 66 72
167 195 70 65 64 74
168 195 70 65 68 73
169 195 71 67 66 72
170 195 71 67 68 73
171 195 84 78 79 89
172 195 84 78 81 87
173 195 85 80 79 89
174 195 85 80 83 88
175 195 86 82 81 87
176 195 86 82 83 88
177 201 2 3 1 12
178 201 5 6 13 14
179 201 7 3 1 12
180 201 7 6 13 14
181 201 16 17 15 26
182 201 19 20 27 28
183 201 21 17 15 26
184 201 21 20 27 28

Impropers

1 3 2 5 4 9
2 3 3 4 2 8
3 3 3 6 7 11
4 3 4 6 5 10
5 3 16 19 18 23
6 3 17 18 16 22
7 3 17 20 21 25
8 3 18 20 19 24
9 3 30 32 29 35
10 3 30 34 31 36
11 3 32 34 33 37
12 3 47 49 46 52
13 3 47 51 48 53
14 3 49 51 50 54
15 3 64 66 63 69
16 3 64 68 65 70
17 3 66 68 67 71
18 3 79 81 78 84
19 3 79 83 80 85
20 3 81 83 82 86
21 23 29 31 30 40
22 23 46 48 47 57

