LAMMPS Description
31 atoms
32 bonds
42 angles
70 dihedrals
10 impropers
10 atom types
13 bond types
12 angle types
7 dihedral types
3 improper types
0.0 20 xlo xhi
0.0 20 ylo yhi
0.0 20 zlo zhi

Masses

1 12.01  # c1
2 12.01  # c2
3 12.01  # ca
4 1.008  # ha
5 1.008  # hn
6 1.008  # ho
7 14.01  # n
8 14.01  # n2
9 16.00  # o
10 16.00  # oh

Atoms

1 1 3 -0.09 -1.3199999928474426 1.809999942779541 -0.48000000417232513
2 1 3 -0.036 -2.3000000417232513 0.8600000292062759 -0.17000000923871994
3 1 3 -0.089 0.020000000949949026 1.4800000190734863 -0.28999999165534973
4 1 3 -0.101 0.3999999910593033 0.2199999988079071 0.1899999938905239
5 1 3 -0.047 -0.5900000035762787 -0.7100000232458115 0.4899999871850014
6 1 3 -0.149 -1.9499999284744263 -0.4100000113248825 0.3099999949336052
7 1 4 0.164 -3.3500000834465027 1.1100000143051147 -0.3099999949336052
8 1 4 0.17 0.7800000160932541 2.2200000286102295 -0.5400000140070915
9 1 4 0.169 -0.3099999949336052 -1.6899999976158142 0.8600000292062759
10 1 2 0.346 1.850000023841858 -0.14999999664723873 0.39000000804662704
11 1 9 -0.336 2.1699999272823334 -1.25 0.820000022649765
12 1 7 -0.317 2.7700001001358032 0.7900000363588333 0.09999999776482582
13 1 3 -0.193 4.900000095367432 1.770000010728836 0.7599999755620956
14 1 3 0.065 4.189999997615814 0.689999982714653 0.23000000044703484
15 1 3 -0.09 6.290000081062317 1.7100000381469727 0.8799999952316284
16 1 3 -0.207 6.980000138282776 0.5700000002980232 0.46000000089406967
17 1 3 0.041 6.28000020980835 -0.5099999904632568 -0.08999999612569809
18 1 3 -0.14 4.8899999260902405 -0.4399999976158142 -0.19999999552965164
19 1 4 0.129 4.370000064373016 2.6600000262260437 1.0899999737739563
20 1 4 0.128 6.840000152587891 2.549999952316284 1.2999999523162842
21 1 4 0.129 8.059999942779541 0.5299999937415123 0.5499999970197678
22 1 4 0.179 4.350000023841858 -1.2800000607967377 -0.6400000303983688
23 1 5 0.234 2.4400000274181366 1.7000000178813934 -0.17000000923871994
24 1 2 0.35 -1.6599999368190765 3.190000057220459 -1.0000000149011612
25 1 1 0.267 -2.9600000381469727 -1.469999998807907 0.6599999964237213
26 1 9 -0.056 -2.669999897480011 -2.5699999928474426 1.080000028014183
27 1 9 -0.348 -0.820000022649765 4.020000100135803 -1.2700000405311584
28 1 10 -0.318 -2.9199999570846558 3.4599998593330383 -1.1500000208616257
29 1 8 -0.235 6.949999928474426 -1.6200000047683716 -0.5099999904632568
30 1 5 0.127 7.919999957084656 -1.7200000584125519 -0.24000000208616257
31 1 6 0.253 -2.9600000381469727 4.379999935626984 -1.4900000393390656

Bonds

1 7 1 2
2 7 1 3
3 3 1 24
4 7 2 6
5 7 3 4
6 7 4 5
7 3 4 10
8 7 5 6
9 1 6 25
10 5 10 11
11 4 10 12
12 10 12 14
13 7 13 14
14 7 13 15
15 7 14 18
16 7 15 16
17 7 16 17
18 7 17 18
19 9 17 29
20 5 24 27
21 6 24 28
22 2 25 26
23 8 2 7
24 8 3 8
25 8 5 9
26 12 12 23
27 8 13 19
28 8 15 20
29 8 16 21
30 8 18 22
31 13 28 31
32 11 29 30

Angles

1 1 27 24 28
2 2 2 6 25
3 2 5 6 25
4 3 3 4 10
5 3 5 4 10
6 3 2 1 24
7 3 3 1 24
8 4 1 2 6
9 4 1 3 4
10 4 2 1 3
11 4 2 6 5
12 4 3 4 5
13 4 4 5 6
14 4 13 14 18
15 4 13 15 16
16 4 14 13 15
17 4 14 18 17
18 4 15 16 17
19 4 16 17 18
20 5 1 2 7
21 5 1 3 8
22 5 4 3 8
23 5 4 5 9
24 5 6 2 7
25 5 6 5 9
26 5 13 15 20
27 5 14 13 19
28 5 14 18 22
29 5 15 13 19
30 5 15 16 21
31 5 16 15 20
32 5 17 16 21
33 5 17 18 22
34 6 16 17 29
35 6 18 17 29
36 7 12 14 13
37 7 12 14 18
38 8 17 29 30
39 9 10 12 14
40 10 10 12 23
41 11 14 12 23
42 12 24 28 31

Dihedrals

1 1 2 6 25 26
2 1 5 6 25 26
3 2 3 4 10 11
4 2 5 4 10 11
5 2 2 1 24 27
6 2 3 1 24 27
7 2 3 4 10 12
8 2 5 4 10 12
9 2 2 1 24 28
10 2 3 1 24 28
11 3 4 10 12 14
12 3 4 10 12 23
13 3 11 10 12 14
14 3 11 10 12 23
15 4 1 24 28 31
16 4 27 24 28 31
17 5 1 2 6 5
18 5 1 3 4 5
19 5 2 1 3 4
20 5 2 6 5 4
21 5 3 1 2 6
22 5 3 4 5 6
23 5 13 14 18 17
24 5 13 15 16 17
25 5 14 13 15 16
26 5 14 18 17 16
27 5 15 13 14 18
28 5 15 16 17 18
29 5 1 2 6 25
30 5 4 5 6 25
31 5 1 3 4 10
32 5 4 3 1 24
33 5 6 2 1 24
34 5 6 5 4 10
35 5 2 1 3 8
36 5 2 6 5 9
37 5 3 1 2 7
38 5 3 4 5 9
39 5 5 4 3 8
40 5 5 6 2 7
41 5 13 14 18 22
42 5 13 15 16 21
43 5 14 13 15 20
44 5 16 15 13 19
45 5 16 17 18 22
46 5 17 16 15 20
47 5 18 14 13 19
48 5 18 17 16 21
49 5 7 2 1 24
50 5 8 3 1 24
51 5 8 3 4 10
52 5 9 5 4 10
53 5 7 2 6 25
54 5 9 5 6 25
55 5 12 14 13 15
56 5 12 14 18 17
57 5 12 14 13 19
58 5 12 14 18 22
59 5 14 18 17 29
60 5 15 16 17 29
61 5 19 13 15 20
62 5 20 15 16 21
63 5 21 16 17 29
64 5 22 18 17 29
65 6 10 12 14 13
66 6 10 12 14 18
67 6 13 14 12 23
68 6 18 14 12 23
69 7 16 17 29 30
70 7 18 17 29 30

Impropers

1 1 1 6 2 7
2 1 1 4 3 8
3 1 4 6 5 9
4 1 13 16 15 20
5 1 14 15 13 19
6 1 14 17 18 22
7 1 15 17 16 21
8 2 10 14 12 23
9 3 2 3 1 24
10 3 3 5 4 10
