LAMMPS (14 Dec 2021)
OMP_NUM_THREADS environment is not set. Defaulting to 1 thread. (src/comm.cpp:98)
  using 1 OpenMP thread(s) per MPI task
package omp 0
using multi-threaded neighbor list subroutines
package omp 1
using multi-threaded neighbor list subroutines


# ----------------- Init Section -----------------

include "system.in.init"
    # Default styles and settings for AMBER based force-fields:
    units           real
    atom_style      full
    bond_style      hybrid harmonic
    angle_style     hybrid harmonic
    dihedral_style  hybrid fourier
    improper_style  hybrid cvff
    pair_style      hybrid lj/charmm/coul/long 9.0 10.0 10.0
    kspace_style    pppm 0.0001

    # NOTE: If you do not want to use long-range coulombic forces,
    #       comment out the two lines above and uncomment this line:
    # pair_style      hybrid lj/charmm/coul/charmm 9.0 10.0

    pair_modify     mix arithmetic
    special_bonds   amber


# ----------------- Atom Definition Section -----------------

read_data "cleanedsystem.data"
Reading data file ...
  orthogonal box = (0 0 0) to (220 220 220)
  4 by 4 by 4 MPI processor grid
  reading atoms ...
  193113 atoms
  scanning bonds ...
  3 = max bonds/atom
  scanning angles ...
  3 = max angles/atom
  scanning dihedrals ...
  9 = max dihedrals/atom
  scanning impropers ...
  2 = max impropers/atom
  reading bonds ...
  193113 bonds
  reading angles ...
  253560 angles
  reading dihedrals ...
  386226 dihedrals
  reading impropers ...
  49014 impropers
Finding 1-2 1-3 1-4 neighbors ...
  special bond factors lj:    0        0        0.5     
  special bond factors coul:  0        0        0.8333333333333334
     3 = max # of 1-2 neighbors
     6 = max # of 1-3 neighbors
    11 = max # of 1-4 neighbors
    13 = max # of special neighbors
  special bonds CPU = 0.014 seconds
  read_data CPU = 3.187 seconds


# ----------------- Settings Section -----------------

include "cleanedsystem.in.settings"
pair_coeff 1 1 lj/charmm/coul/long 0.2100 3.39966950842 # cp C DLM 11/2007 well depth from OPLS replacing 0.0860
pair_coeff 2 2 lj/charmm/coul/long 0.0860 3.39966950842 # sp2 atom in the middle of C=CD-CD=C
pair_coeff 3 3 lj/charmm/coul/long 0.0860 3.39966950842 # OPLS
pair_coeff 4 4 lj/charmm/coul/long 0.0150 2.59964245953 # Spellmeyer
pair_coeff 5 5 lj/charmm/coul/long 0.0157 1.06907846177 # !Ferguson base pair geom.
pair_coeff 6 6 lj/charmm/coul/long 0.0000 0.0 # OPLS Jorgensen, JACS,110,(1988),1657
pair_coeff 7 7 lj/charmm/coul/long 0.1700 3.24999852378 # OPLS
pair_coeff 8 8 lj/charmm/coul/long 0.1700 3.24999852378 # OPLS
pair_coeff 9 9 lj/charmm/coul/long 0.2100 2.95992190115 # OPLS
pair_coeff 10 10 lj/charmm/coul/long 0.2104 3.06647338784 # OPLS
bond_coeff 1 harmonic 404.1 1.4400 # SOUECE3 1
bond_coeff 2 harmonic 777.0 1.1660 # SOURCE2 9 0.0052
bond_coeff 3 harmonic 357.2 1.4800 # SOUECE3 1
bond_coeff 4 harmonic 390.5 1.4070 # SOURCE3 9 0.0124
bond_coeff 5 harmonic 623.6 1.2244 # SOURCE4 15 0.0036
bond_coeff 6 harmonic 425.4 1.3330 # SOURCE1 53 0.0000
bond_coeff 7 harmonic 478.4 1.3870 # SOURCE1 6228 0.0147
bond_coeff 8 harmonic 344.3 1.0870 # SOURCE3 1496 0.0045
bond_coeff 9 harmonic 551.6 1.3030 # SOURCE4 7 0.0058
bond_coeff 10 harmonic 372.3 1.4220 # SOURCE3 9 0.0098
bond_coeff 11 harmonic 375.5 1.0290 # SOURCE3 108 0.0096
bond_coeff 12 harmonic 410.2 1.0090 # SOURCE3 149 0.0098
bond_coeff 13 harmonic 369.6 0.9740 # SOURCE3 367 0.0105
angle_coeff 1 harmonic 76.69 121.23 # SOURCE4 6 0.0958
angle_coeff 2 harmonic 65.86 120.00 # SOURCE3 1
angle_coeff 3 harmonic 64.69 120.60 # SOURCE3 1
angle_coeff 4 harmonic 67.18 119.97 # SOURCE3 1969 0.3480
angle_coeff 5 harmonic 48.46 120.01 # SOURCE3 2980 0.2511
angle_coeff 6 harmonic 70.95 119.57 # SOURCE3 1
angle_coeff 7 harmonic 67.97 119.89 # SOURCE3 18 0.2095
angle_coeff 8 harmonic 50.01 120.00 # SOURCE3 1
angle_coeff 9 harmonic 64.88 116.54 # SOURCE3 1
angle_coeff 10 harmonic 47.33 118.36 # SOURCE4 40 1.8005
angle_coeff 11 harmonic 47.36 115.94 # SOURCE4 537 1.8890
angle_coeff 12 harmonic 49.91 108.98 # SOURCE3 6 2.2379
dihedral_coeff 1 fourier 1 0.0 2 180.0 #
dihedral_coeff 2 fourier 1 0.7 2 180.0 # optimized by Junmei Wang, March 2013
dihedral_coeff 3 fourier 1 0.65 2 180.0 #
dihedral_coeff 4 fourier 1 1.05 2 180.0 # parm99
dihedral_coeff 5 fourier 1 3.625 2 180.0 # intrpol.bsd.on C6H6
dihedral_coeff 6 fourier 1 0.45 2 180.0 #
dihedral_coeff 7 fourier 1 0.0 3 180.0 #
improper_coeff 1 cvff 1.1 -1 2 # bsd.on C6H6 nmodes
improper_coeff 2 cvff 1.1 -1 2 # JCC,7,(1986),230
improper_coeff 3 cvff 1.1 -1 2 #


# ----------------- Run Section -----------------

neighbor	    2.0 bin
neigh_modify	every 1 delay 0 check yes
timestep        2.0

# Initial minimization and equilibration
dump		pre_polym all xtc 5000 pre_polym.xtc
thermo_style custom step temp press pe ke etotal epair ebond eangle edihed eimp vol
thermo 500

minimize 	0 1e-8 1000 10000
PPPM initialization ...
  using 12-bit tables for long-range coulomb (src/kspace.cpp:340)
  G vector (1/distance) = 0.21160108
  grid = 64 64 64
  stencil order = 5
  estimated absolute RMS force accuracy = 0.038164899
  estimated relative force accuracy = 0.00011493246
  using double precision FFTW3
  3d grid and FFT values/proc = 9261 4096
  generated 45 of 45 mixed pair_coeff terms from arithmetic mixing rule
Hybrid pair style last /omp style lj/charmm/coul/long
Last active /omp style is kspace_style pppm/omp
Neighbor list info ...
  update every 1 steps, delay 0 steps, check yes
  max neighbors/atom: 2000, page size: 100000
  master list distance cutoff = 12
  ghost atom cutoff = 12
  binsize = 6, bins = 37 37 37
  1 neighbor lists, perpetual/occasional/extra = 1 0 0
  (1) pair lj/charmm/coul/long, perpetual
      attributes: half, newton on, omp
      pair build: half/bin/newton/omp
      stencil: half/bin/3d
      bin: standard
Per MPI rank memory allocation (min/avg/max) = 17.95 | 18.34 | 18.49 Mbytes
Step Temp Press PotEng KinEng TotEng E_pair E_bond E_angle E_dihed E_impro Volume 
       0            0   -1673.3499      1174989            0      1174989      1092080    78623.545    4283.6519    1.6470748   0.14547781     10648000 
     500            0   -1926.0089   -1374469.1            0   -1374469.1   -1407753.9    7507.0369    2802.0381    22631.289    344.49266     10648000 
    1000            0   -1381.5513   -1700284.9            0   -1700284.9   -1727778.3    5060.7172    2028.8031    20080.669    323.23099     10648000 
Loop time of 20.5139 on 64 procs for 1000 steps with 193113 atoms

97.9% CPU use with 64 MPI tasks x 1 OpenMP threads

Minimization stats:
  Stopping criterion = max iterations
  Energy initial, next-to-last, final = 
      1174989.01353807  -1699986.19405854   -1700284.8687139
  Force two-norm initial, final = 92304.219 998.62156
  Force max component initial, final = 35336.39 154.73853
  Final line search alpha, max atom move = 0.0013521027 0.20922239
  Iterations, force evaluations = 1000 1129

MPI task timing breakdown:
Section |  min time  |  avg time  |  max time  |%varavg| %total
---------------------------------------------------------------
Pair    | 7.3062     | 9.4876     | 12.119     |  38.6 | 46.25
Bond    | 1.1335     | 1.4018     | 1.6324     |   8.8 |  6.83
Kspace  | 5.4827     | 8.3638     | 10.812     |  44.6 | 40.77
Neigh   | 0.45812    | 0.46173    | 0.46632    |   0.3 |  2.25
Comm    | 0.41266    | 0.44144    | 0.46188    |   2.0 |  2.15
Output  | 0.0010185  | 0.0011743  | 0.0015396  |   0.3 |  0.01
Modify  | 0.058833   | 0.086565   | 0.105      |   4.1 |  0.42
Other   |            | 0.2698     |            |       |  1.32

Nlocal:        3017.39 ave        3585 max        2365 min
Histogram: 2 0 2 11 9 18 12 3 5 2
Nghost:        5743.78 ave        7053 max        4887 min
Histogram: 4 10 12 6 9 11 9 1 0 2
Neighs:         228695 ave      297213 max      169545 min
Histogram: 2 7 10 8 9 11 5 6 4 2

Total # of neighbors = 14636485
Ave neighs/atom = 75.792334
Ave special neighs/atom = 8.4331764
Neighbor list builds = 35
Dangerous builds = 0

write_data 	min.data
System init for write_data ...
PPPM initialization ...
  using 12-bit tables for long-range coulomb (src/kspace.cpp:340)
  G vector (1/distance) = 0.21160108
  grid = 64 64 64
  stencil order = 5
  estimated absolute RMS force accuracy = 0.038164899
  estimated relative force accuracy = 0.00011493246
  using double precision FFTW3
  3d grid and FFT values/proc = 9261 4096
  generated 45 of 45 mixed pair_coeff terms from arithmetic mixing rule
Hybrid pair style last /omp style lj/charmm/coul/long
Last active /omp style is kspace_style pppm/omp

velocity all create 300.0 123456 dist gaussian

fix 1 all nve
fix 3 all temp/rescale 1 300.0 300.0 10.0 1.0
run           2500000
PPPM initialization ...
  using 12-bit tables for long-range coulomb (src/kspace.cpp:340)
  G vector (1/distance) = 0.21160108
  grid = 64 64 64
  stencil order = 5
  estimated absolute RMS force accuracy = 0.038164899
  estimated relative force accuracy = 0.00011493246
  using double precision FFTW3
  3d grid and FFT values/proc = 9261 4096
  generated 45 of 45 mixed pair_coeff terms from arithmetic mixing rule
Hybrid pair style last /omp style lj/charmm/coul/long
Last active /omp style is kspace_style pppm/omp
Per MPI rank memory allocation (min/avg/max) = 16.82 | 17.26 | 17.75 Mbytes
Step Temp Press PotEng KinEng TotEng E_pair E_bond E_angle E_dihed E_impro Volume 
    1000          300   -640.19051   -1700284.9    172689.06   -1527595.8   -1727778.3    5060.7172    2028.8031    20080.669    323.23099     10648000 
    1500    301.55329   -453.48687   -1770893.3    173583.18   -1597310.1     -1870043    30080.849    24164.529    43653.156     1251.115     10648000 
    2000    302.60481   -268.51601   -1832400.5    174188.46     -1658212   -1935091.9    29767.502    27018.793    44659.253    1245.8212     10648000 
    2500    303.46051   -186.70458   -1862992.3    174681.03   -1688311.3   -1972122.6     31159.53     29723.09    46886.708    1360.9844     10648000 
    3000    305.80347    -143.4378   -1882115.7    176029.71     -1706086   -1997821.6    33776.399    32255.769    48219.564    1454.1477     10648000 
    3500    308.41465    -195.1558     -1895595    177532.79   -1718062.2   -2016863.1    36315.222     34354.58    49057.863    1540.4664     10648000 
    4000    306.09579   -183.32889   -1906159.2    176197.98   -1729961.2   -2032149.3    38750.123    35790.496    49818.693    1630.7806     10648000 
    4500    307.50196   -168.88361   -1913020.9    177007.41   -1736013.5   -2043643.2    40911.787    37249.451    50762.947    1698.0651     10648000 
    5000    307.74296    -240.7846   -1919293.4    177146.14   -1742147.2   -2053117.2    43388.534    38161.565    50551.163    1722.5724     10648000 
    5500    306.46584   -212.86751   -1924587.1    176410.99   -1748176.1   -2060905.6    45049.072    38965.538    50532.788    1771.1251     10648000 
    6000    304.82766   -250.28494     -1929658       175468     -1754190   -2067823.2    46739.906    39169.262    50464.552    1791.4492     10648000 
    6500     308.2379   -219.10112   -1931721.4    177431.04   -1754290.3   -2073258.3    48767.475    40198.533    50730.064    1840.8675     10648000 
    7000    305.01749   -258.40706   -1935954.1    175577.28   -1760376.9     -2078441    50074.786    40229.348    50367.879    1814.8083     10648000 
    7500    307.37983   -217.40778     -1937452    176937.11   -1760514.9   -2082672.4    51545.652    41103.857    50715.765    1855.0669     10648000 
    8000    308.76559   -257.25742   -1938307.8    177734.79     -1760573   -2085762.2    53229.044    41563.111    50784.819    1877.3936     10648000 
    8500    304.95255   -246.72332   -1942149.9    175539.89     -1766610     -2089621    53964.533    41560.737     50090.68    1855.0782     10648000 
    9000    306.90665   -209.18889   -1943328.3    176664.73   -1766663.6   -2092446.5    55103.344    41909.329    50230.285    1875.2748     10648000 
    9500    307.71788   -273.92273   -1943853.7     177131.7     -1766722   -2094791.6    56272.702    42341.497    50425.401    1898.3501     10648000 
   10000    308.41734   -291.98919   -1944306.7    177534.33   -1766772.3   -2096691.1    57405.444    42423.146    50641.676    1914.2034     10648000 
   10500    304.91188   -225.31111   -1948332.8    175516.48   -1772816.4   -2099740.8    57713.772    41841.777     49963.56    1888.8348     10648000 
   11000    305.52593   -264.05426   -1948672.9    175869.95     -1772803   -2101140.3    58555.052    42398.058    49612.124    1902.1576     10648000 
   11500    305.70129   -274.17083   -1948791.3    175970.89   -1772820.4     -2102404    59494.348    42435.599    49788.411    1894.3459     10648000 
   12000    307.92579   -215.85567   -1950173.5    177251.38   -1772922.1   -2104237.1    59860.576    42444.487    49850.768    1907.7053     10648000 
   12500    307.72534   -244.16943   -1950004.1       177136   -1772868.1   -2105315.9    60503.787      42659.3    50235.054    1913.7045     10648000 
   13000    308.32339    -250.2817   -1950381.3    177480.25   -1772901.1     -2106792    61554.442    43012.569     49930.58    1913.0598     10648000 
   13500    304.03669   -281.91802   -1954094.3     175012.7   -1779081.6   -2108434.7    60678.291     42356.04    49420.658    1885.4151     10648000 
   14000    304.56075   -221.85496   -1954402.1    175314.36   -1779087.7   -2109711.2    61296.754    42600.486    49520.931    1890.9286     10648000 
   14500    304.76397     -271.586   -1954513.8    175431.34   -1779082.5     -2110353    61739.047     42577.67    49594.272    1928.2138     10648000 
   15000    304.59012   -259.52269     -1954382    175331.27   -1779050.7   -2111167.9    62491.151    42944.111    49430.829    1919.7716     10648000 
   15500    305.98807   -275.28892   -1955200.6    176135.97   -1779064.7   -2112062.9     63028.21    42707.544    49229.557     1896.959     10648000 
   16000    306.44027   -259.88424   -1955491.6    176396.27   -1779095.4   -2112529.6    63071.403    42779.177    49279.972    1907.4014     10648000 
   16500    306.37545   -308.72234   -1955491.4    176358.96   -1779132.4   -2113155.4    63727.816    42865.429    49171.654    1899.1008     10648000 
   17000    306.42442   -222.09749   -1955480.8    176387.15   -1779093.7   -2114082.8    63780.202    43531.734    49354.955     1935.058     10648000 
   17500    307.39155   -265.96132   -1956152.4    176943.86   -1779208.5   -2114686.8    63986.634    43146.598    49482.366    1918.7729     10648000 
   18000    307.85482   -290.46492   -1956385.3    177210.53   -1779174.8   -2115454.6    64509.928    43242.447    49401.595    1915.2801     10648000 
   18500    307.86372   -267.44667     -1956370    177215.65   -1779154.4   -2116009.9    64802.512    43321.011     49576.55    1939.8022     10648000 
   19000    308.21617   -244.81476     -1956612    177418.53   -1779193.5   -2116124.2    64808.423    43398.238    49372.792    1932.7371     10648000 
   19500     308.7796    -256.8155   -1956920.8    177742.86   -1779177.9   -2116604.6    65278.528     43148.46    49323.477    1933.2979     10648000 
   20000    303.63649   -318.37449   -1959927.3    174782.33     -1785145   -2117615.7    64472.295    42675.987    48637.804      1902.26     10648000 
   20500    303.62361   -336.66758   -1959909.6    174774.92   -1785134.7   -2118327.3     64814.34    42769.486    48936.996    1896.8871     10648000 
   21000      305.147   -320.52839   -1960860.1    175651.83   -1785208.3   -2119274.4    64735.039     42725.76    49060.396    1893.0827     10648000 
   21500    305.03619   -240.53234   -1960775.4    175588.04   -1785187.3   -2119386.9    64909.865    42807.798        48986      1907.87     10648000 
   22000    305.66728   -241.41588   -1961137.7    175951.31   -1785186.4   -2119755.1    64975.741    42792.301    48946.676     1902.634     10648000 
   22500    305.45297    -263.8871   -1961011.8    175827.95   -1785183.9   -2119616.5    65068.556    42928.643    48684.971    1922.4455     10648000 
   23000    305.72396   -245.80279   -1961135.1    175983.94   -1785151.1   -2120012.4    65398.372    42800.036    48791.438     1887.452     10648000 
   23500    305.54243   -243.35494   -1961040.3    175879.44   -1785160.8   -2120163.9    65211.465      43477.4    48536.525    1898.2117     10648000 
   24000    306.00373   -302.18755   -1961339.7    176144.99   -1785194.8   -2120435.8    65117.833    43158.619    48896.882    1922.7164     10648000 
   24500    305.67375   -318.62775   -1961091.3    175955.04   -1785136.3   -2120907.7    66048.432    43132.313     48743.49    1892.1959     10648000 
   25000    305.35606   -295.80552   -1960920.2    175772.17   -1785148.1   -2121029.7    65781.323    43335.605    49060.695    1931.8647     10648000 
   25500    306.88343   -306.27278   -1961779.1    176651.37   -1785127.8   -2121490.3    65906.701    43241.104    48666.039    1897.3602     10648000 
   26000    306.16253    -313.7541   -1961383.3    176236.39   -1785146.9   -2121524.8      66197.5    43138.216    48874.161    1931.5989     10648000 
   26500    306.28549   -312.59803   -1961474.7    176307.17   -1785167.5   -2121777.1    66103.609    43305.782    48983.879    1909.1919     10648000 
   27000    306.81252   -253.94959     -1961748    176610.55   -1785137.5   -2122186.1    66127.419    43251.156    49131.893    1927.5599     10648000 
   27500    306.73608    -330.4716   -1961710.8    176566.55   -1785144.2     -2121940    66100.211    43345.416    48878.141    1905.4598     10648000 
   28000    307.40148   -263.41938   -1962016.2    176949.57   -1785066.6   -2122220.3    66244.664     43080.21    48964.292    1914.9982     10648000 
   28500    307.67935   -231.07094   -1962197.6    177109.52   -1785088.1   -2122469.9     66198.32    43212.397    48930.138    1931.4549     10648000 
   29000     307.4808   -316.54863   -1962109.5    176995.23   -1785114.3   -2122601.4    66380.595    43212.967    48988.336    1909.9448     10648000 
   29500    307.60512   -255.73298   -1962175.4    177066.79   -1785108.6   -2122895.4    66482.467    43617.615     48701.47    1918.4944     10648000 
   30000    307.51277   -236.21786   -1962079.3    177013.63   -1785065.7   -2122846.6    66724.978    43579.688    48562.028     1900.635     10648000 
   30500    307.66601   -258.98327   -1962148.4    177101.84   -1785046.6   -2123269.9    66977.159    43549.621    48680.482    1914.2287     10648000 
   31000    308.62583   -266.95686     -1962691    177654.35   -1785036.7   -2123458.1    66856.725    43301.905    48701.662    1906.7723     10648000 
   31500    307.81157   -269.84241     -1962183    177185.63   -1784997.4     -2123397    66792.994    43601.772    48892.454    1926.7171     10648000 
   32000    307.76776   -303.62971   -1962203.9    177160.42   -1785043.5   -2123799.6    66852.008    43699.817     49116.81    1927.0431     10648000 
   32500    308.52859   -262.45154     -1962618    177598.37   -1785019.6   -2123903.4    66848.596    43537.352     48986.34     1913.142     10648000 
   33000    308.97088   -309.12736   -1962859.6    177852.97   -1785006.7   -2124133.3    67126.036    43570.772    48660.797    1916.0897     10648000 
   33500    308.81661   -258.22917   -1962821.7    177764.16   -1785057.5   -2123665.4     66762.29    43409.442    48766.293    1905.7118     10648000 
   34000    308.54798   -370.98215   -1962591.9    177609.53   -1784982.3     -2124039     67148.63    43620.535    48760.631    1917.3008     10648000 
   34500    304.02405   -275.73671   -1965943.5    175005.42   -1790938.1   -2124877.2    65898.742    42738.222    48388.144     1908.538     10648000 
   35000    303.55178   -239.43553   -1965678.7    174733.57   -1790945.2   -2125121.4    65955.904    42982.302    48604.789    1899.6566     10648000 
   35500    304.12825   -268.41014   -1965967.8     175065.4   -1790902.4   -2125079.7    66164.155    43000.829    48056.865    1890.1359     10648000 
   36000    303.95207   -222.44601   -1965842.9    174963.99   -1790878.9   -2125379.3    66060.911    43088.923    48490.524    1896.0851     10648000 
   36500    304.22447   -244.81554   -1966057.3    175120.79   -1790936.5     -2125364    66228.313    42777.546    48394.242    1906.5923     10648000 
   37000    305.10633   -347.15482   -1966549.5    175628.42   -1790921.1   -2125737.3    66049.676    42861.296    48372.647    1904.2223     10648000 
   37500    304.75775   -288.16968   -1966304.1    175427.76   -1790876.3   -2126048.8    66171.746    43103.761     48570.91    1898.3245     10648000 
   38000    303.78947   -272.08253   -1965713.3    174870.39   -1790842.9   -2125661.3    66446.011    43203.109    48404.304    1894.5473     10648000 
   38500    305.04756   -338.17472     -1966470    175594.59   -1790875.4   -2126024.2    66363.413    42917.626    48370.495    1902.6522     10648000 
   39000    304.68022   -311.74729   -1966269.2    175383.13   -1790886.1   -2126166.4    66525.744    42869.461    48593.727    1908.2179     10648000 
   39500    304.65343   -252.64234   -1966223.3    175367.71   -1790855.6   -2125870.8    66175.774    43360.843    48236.929    1873.9584     10648000 
   40000    304.71042   -316.62981   -1966279.6    175400.52     -1790879   -2126062.6    66451.043    43291.785    48150.692    1889.4778     10648000 
   40500    305.40939   -343.20556   -1966689.9    175802.86     -1790887   -2126302.4    66562.295    43217.453    47958.877     1873.873     10648000 
   41000    304.68204   -300.01353   -1966157.4    175384.18   -1790773.2   -2126339.5    66801.909     43104.37    48375.633    1900.2179     10648000 
   41500    304.73268   -264.56873   -1966166.7    175413.33   -1790753.4   -2126519.4    66672.167    43253.058     48542.25    1885.2588     10648000 
   42000    305.31787   -289.36147   -1966588.3    175750.18   -1790838.1   -2126758.1    66358.303    43380.231    48537.856    1893.3809     10648000 
   42500     305.6517   -303.63868     -1966734    175942.35   -1790791.7   -2126674.1    66385.123    43150.996    48496.885    1907.0693     10648000 
   43000    305.66362    -320.4682   -1966737.2    175949.21     -1790788   -2126511.2    66514.184    43204.585     48151.82    1903.4282     10648000 
   43500    305.60753   -292.16495   -1966721.6    175916.92   -1790804.7   -2126718.6    66581.006    43137.329    48379.349    1899.2918     10648000 
   44000    305.35371    -251.3674     -1966590    175770.82   -1790819.2   -2126895.2    66664.548    43209.996      48537.3     1893.398     10648000 
   44500    305.49552   -241.76939   -1966601.8    175852.45   -1790749.4   -2126605.8    66694.521    43003.054    48401.612    1904.7562     10648000 
   45000    305.33977   -229.78399   -1966497.7    175762.79   -1790734.9   -2126969.3    66898.303    43180.119    48482.779    1910.3954     10648000 
   45500    305.76114     -271.322   -1966737.5    176005.34   -1790732.2   -2126994.6    66932.637    43091.456     48342.26    1890.7209     10648000 
   46000       305.67   -315.34887   -1966716.9    175952.88     -1790764   -2127112.3    66508.459    43363.866    48610.234    1912.8738     10648000 
   46500    306.28335   -267.75238   -1967006.5    176305.94   -1790700.6   -2127272.2     66777.67    43022.409    48538.342    1927.2188     10648000 
   47000    306.14396   -228.90207   -1966909.7    176225.71     -1790684   -2127396.4    66618.514    43438.768    48518.112    1911.3804     10648000 
   47500    306.19396   -360.13655   -1966947.2    176254.49   -1790692.7   -2127657.4    66757.708     43518.29    48547.361    1886.8719     10648000 
   48000    306.61901   -237.27926   -1967199.5    176499.16   -1790700.3   -2127357.1    66727.565    43254.291    48287.055    1888.6872     10648000 
   48500    306.18684   -241.52015     -1966943    176250.39   -1790692.7   -2127574.8    66874.224    43356.906    48494.098    1906.5716     10648000 
   49000    306.12988   -278.11079   -1966890.4     176217.6   -1790672.8   -2127464.9    66643.518    43409.726    48597.935    1923.3752     10648000 
   49500    306.01202   -231.41152   -1966750.7    176149.76   -1790600.9   -2127531.5    66807.994    43482.858    48578.736     1911.289     10648000 
   50000     306.7521   -286.88636   -1967206.3    176575.77   -1790630.5   -2127532.7    67025.846    43106.011    48291.596    1902.9973     10648000 
   50500    307.36869   -286.65105   -1967582.2     176930.7   -1790651.5   -2127787.6    66747.827    43196.504    48362.019    1899.0381     10648000 
   51000    306.31795   -202.46005   -1966957.6    176325.86   -1790631.7     -2127688    66874.676    43558.509     48391.99    1905.2992     10648000 
   51500    307.01476   -292.55505   -1967343.5    176726.96   -1790616.5   -2127975.6    66872.383     43336.31    48506.772    1916.5777     10648000 
   52000    307.10503   -250.92154   -1967361.2    176778.93   -1790582.3   -2127619.1    66915.544    43295.994     48134.91    1911.4551     10648000 
   52500    306.93438   -335.74207   -1967254.8     176680.7   -1790574.1   -2128243.3    66962.789    43427.811    48689.347    1908.5375     10648000 
   53000    306.82797    -277.5889   -1967150.5    176619.44     -1790531   -2127774.8    66745.308    43428.667    48540.815    1909.5627     10648000 
   53500    306.87572   -266.56832   -1967187.7    176646.93   -1790540.8   -2128290.3    67061.154     43443.63     48675.28    1922.5222     10648000 
   54000    306.51742   -318.56235   -1966922.8    176440.68   -1790482.2   -2128134.6    66959.872    43794.446    48538.284    1919.1484     10648000 
   54500    307.62976   -279.90378   -1967610.7    177080.98   -1790529.7   -2128050.6    66798.862    43181.878    48550.886    1908.2346     10648000 
   55000    307.22563   -237.37716   -1967322.3    176848.35     -1790474     -2128121    67123.716    43419.317    48356.354    1899.2645     10648000 
   55500    307.02365   -195.77054     -1967261    176732.08   -1790528.9   -2128230.1    66985.551    43557.492     48496.59    1929.5131     10648000 
   56000    306.81412   -297.90112   -1967046.8    176611.47   -1790435.3   -2128269.7    67267.353    43461.968    48575.147     1918.483     10648000 
   56500    307.23611   -321.32697   -1967309.5    176854.38   -1790455.1   -2128436.9    67177.046    43374.737    48662.602    1913.0228     10648000 
   57000     306.6753   -261.14654   -1966992.4    176531.56   -1790460.9   -2128399.5    67300.242    43439.116    48738.968    1928.7578     10648000 
   57500    307.75213   -258.41102   -1967607.1    177151.42   -1790455.7   -2128525.6     67237.23     43417.28    48352.182     1911.755     10648000 
   58000    307.34255   -253.65704   -1967335.9    176915.65   -1790420.3   -2128444.1    67337.992    43307.492    48528.519    1934.1672     10648000 
   58500    307.51674   -279.49661     -1967419    177015.92   -1790403.1   -2128376.7    67386.274    43476.112    48202.595    1892.7848     10648000 
   59000    307.93359   -302.27491   -1967688.8    177255.87   -1790432.9   -2128649.2    67065.046    43386.162    48576.496    1932.7581     10648000 
   59500    308.38557    -272.4534   -1967932.1    177516.05   -1790416.1   -2128629.4    66625.678    43553.214    48601.149    1917.2449     10648000 
   60000       307.99   -235.88763   -1967653.5    177288.34   -1790365.2   -2128777.3    67016.946    43419.845    48770.004    1916.9678     10648000 
   60500     307.5874   -240.29219   -1967413.8    177056.59   -1790357.2   -2128952.4    67280.265     43616.27    48721.796    1920.2965     10648000 
   61000    308.05252   -300.15116   -1967665.9    177324.33   -1790341.6   -2128841.6    67264.657    43544.568    48467.869     1898.604     10648000 
   61500    308.18433   -258.08686   -1967798.7    177400.21   -1790398.5   -2128776.8    66970.857    43442.013     48633.18     1932.053     10648000 
   62000    307.41237   -200.98339   -1967293.6    176955.84   -1790337.7   -2128413.8    67112.569    43572.152     48532.28    1903.2253     10648000 
   62500    308.18703   -315.78983     -1967743    177401.76   -1790341.3   -2129125.7    67391.637    43467.511    48620.812    1902.6712     10648000 
   63000    308.84391   -283.51266   -1968108.8    177779.88   -1790328.9   -2129148.3    67182.002    43537.313    48407.597    1912.6144     10648000 
   63500    308.79383   -242.26139   -1968102.6    177751.05   -1790351.6   -2129187.8    67246.612    43508.636    48421.667    1908.2497     10648000 
   64000    308.04277   -251.94098   -1967621.3    177318.72   -1790302.6   -2129208.3    67482.969    43432.907     48748.55    1922.5573     10648000 
   64500    308.49851   -232.07753   -1967903.2    177581.06   -1790322.1   -2128941.7     66831.34    43468.202    48824.934    1914.0244     10648000 
   65000    308.72459   -286.11774   -1967966.2    177711.19     -1790255   -2129312.5    67241.139    43583.199     48599.74    1922.2821     10648000 
   65500    303.99422   -239.77039   -1971298.2    174988.25   -1796309.9   -2130232.7    65958.234    42853.481    48207.065    1915.7435     10648000 
   66000    303.96134   -240.07524   -1971293.3    174969.32     -1796324   -2129895.1    65810.355    42756.169    48140.221     1895.082     10648000 
   66500    302.92794    -271.3397   -1970589.8    174374.47   -1796215.4   -2130261.1    66462.188    43000.478    48293.861    1914.7119     10648000 
   67000    303.48816   -272.71096   -1970906.1    174696.95   -1796209.2   -2130394.3    66509.747    42916.681    48164.881    1896.8351     10648000 
   67500    304.31366      -247.33   -1971480.1    175172.13     -1796308   -2130063.8    65995.011    42772.483    47926.973    1889.2487     10648000 
   68000    304.08996   -272.61771     -1971251    175043.36   -1796207.6   -2130635.3    66386.984    42923.553     48172.28    1901.4832     10648000 
   68500    304.08928   -210.60459   -1971265.4    175042.97   -1796222.5   -2130365.6    66238.006     42994.27    47993.388     1874.481     10648000 
   69000    304.12757   -280.13417   -1971261.2    175065.01   -1796196.2   -2130509.1    66409.862    43054.063    47896.922    1887.0533     10648000 
   69500    303.96819   -286.58773   -1971256.9    174973.27   -1796283.6   -2130379.3    65953.286    43188.971    48083.905    1896.2713     10648000 
   70000    303.68718   -275.28537   -1970974.2    174811.51   -1796162.7   -2130549.6    66428.462    43130.146    48119.736    1897.0156     10648000 
   70500    304.13682   -205.37757   -1971315.1    175070.33   -1796244.8   -2130396.9    66420.487    42764.702    48011.106    1885.4945     10648000 
   71000    304.31134   -213.24594   -1971410.7    175170.79   -1796239.9   -2130610.6    66135.614    43143.315    48020.568    1900.4312     10648000 
   71500    304.19048   -251.45234   -1971325.2    175101.23   -1796223.9   -2130413.9    66586.791    42898.436    47712.419    1891.1334     10648000 
   72000    304.79343   -301.52677     -1971701     175448.3   -1796252.7   -2130878.2    66349.079    42854.573    48073.484    1900.1463     10648000 
   72500    305.02828   -236.64635   -1971772.1    175583.49   -1796188.6   -2130860.9    66376.028     42950.09    47878.433    1884.2342     10648000 
   73000    304.58288   -287.39538   -1971517.5     175327.1   -1796190.4   -2130882.3    66238.904    43070.395    48160.998    1894.5155     10648000 
   73500    303.85294   -258.87833   -1971074.2    174906.93   -1796167.3   -2131100.9    66704.242    43090.425    48323.926    1908.0429     10648000 
   74000    305.17274   -333.55244   -1971810.7    175666.64     -1796144   -2131083.4    66363.672    42791.109    48203.621    1914.3367     10648000 
   74500    304.46304   -220.40076     -1971372    175258.12   -1796113.9   -2131040.8    66391.462    43234.978    48157.282    1885.1101     10648000 
   75000    304.71758   -280.98785   -1971521.8    175404.64   -1796117.1   -2130897.5    66523.184     42997.91    47961.268    1893.3118     10648000 
   75500    305.13745   -264.53599   -1971750.1    175646.33   -1796103.7   -2131138.5    66382.858    42960.864    48151.532    1893.2281     10648000 
   76000    303.89804   -307.36378   -1971006.7    174932.89   -1796073.8     -2130993    66736.936    43096.312    48254.627    1898.4691     10648000 
   76500    304.30328   -310.58767   -1971191.5    175166.16   -1796025.3   -2131286.8     66721.63    43156.487    48300.887    1916.2739     10648000 
   77000    304.46496   -240.01338   -1971294.9    175259.23   -1796035.7   -2131140.4    66433.236    43281.502    48237.045    1893.6608     10648000 
   77500    304.27228   -301.28518   -1971166.9    175148.31   -1796018.5     -2131104      66779.4    43010.192    48240.661    1906.9075     10648000 
   78000    304.84599   -302.25214   -1971500.2    175478.56   -1796021.6   -2131279.3    66716.026    43008.938    48151.155    1903.0062     10648000 
   78500    304.49806   -257.05857   -1971258.3    175278.27     -1795980   -2131113.1    66740.658    43101.744    48113.405    1899.0567     10648000 
   79000    305.93941   -268.22798   -1972108.2    176107.96   -1796000.2   -2131485.2    66804.932    43008.104     47694.89    1869.0732     10648000 
   79500    304.98171   -294.77377   -1971566.4    175556.68   -1796009.7   -2131788.9     66960.48     42993.82    48354.838    1913.3634     10648000 
   80000    305.23605   -273.97582   -1971735.8    175703.08   -1796032.7   -2131504.1    66608.431    43165.298    48098.097    1896.4569     10648000 
   80500    305.28653   -283.43731   -1971747.1    175732.14   -1796014.9   -2131606.6    66607.782    43023.814    48304.078    1923.8566     10648000 
   81000    305.52169   -300.30819   -1971843.3    175867.51   -1795975.8     -2131774    66469.081    43278.189    48281.723    1901.6078     10648000 
   81500    304.98512   -232.25708     -1971481    175558.64   -1795922.4   -2131556.1    66654.973    43080.504    48437.579    1902.0575     10648000 
   82000    305.33774   -260.71698   -1971735.4    175761.62   -1795973.8     -2131519    66712.314    42735.509    48427.457    1908.2755     10648000 
   82500    305.12082   -261.19029     -1971542    175636.76   -1795905.2   -2131661.5    66607.446    43224.445    48393.073      1894.62     10648000 
   83000    304.70508   -329.79809   -1971337.4    175397.45   -1795939.9   -2131913.7    67075.398    43368.266    48231.928     1900.707     10648000 
   83500    305.89715   -278.45679   -1972055.7    176083.64     -1795972   -2131745.8    66478.809    43310.515    48012.048    1888.7612     10648000 
   84000     304.9922   -306.45344   -1971419.5    175562.72   -1795856.8   -2131763.6     66954.15    43180.096    48311.137    1898.7651     10648000 
   84500    306.07279    -301.1627   -1972141.1    176184.74   -1795956.4   -2132206.7    66770.919    43035.224     48361.99    1897.4781     10648000 
   85000    305.63945   -190.45272     -1971913    175935.29   -1795977.7   -2132130.7    66688.617    43240.906    48364.644    1923.5061     10648000 
   85500    305.13948   -218.35147   -1971491.5     175647.5     -1795844     -2132024    66814.028    43527.325    48281.315    1909.7607     10648000 
   86000    305.38708   -277.68029   -1971680.3    175790.02   -1795890.3     -2131999    66714.626    43222.884    48469.179    1911.9292     10648000 
   86500    305.27169   -272.34946   -1971600.5     175723.6   -1795876.9   -2132116.2     66922.95     43201.05    48476.924    1914.7635     10648000 
   87000    305.65978   -215.57032   -1971749.2       175947   -1795802.2   -2131769.8    66815.997    43154.065    48146.114    1904.4044     10648000 
   87500    305.91884   -261.71936   -1971978.8    176096.12   -1795882.6   -2132101.4    66959.482    43051.373    48211.118    1900.6666     10648000 
   88000    305.11781   -285.85733   -1971465.5    175635.02   -1795830.5   -2131945.1    66886.509    43198.292    48480.692    1914.0741     10648000 
   88500    307.14902   -215.45825   -1972649.7    176804.25   -1795845.4     -2132195    66625.939    43049.839    47975.954    1893.5774     10648000 
   89000    306.34483   -250.50013   -1972145.3    176341.33   -1795803.9   -2132068.4    66612.663    43219.314    48186.682    1904.4919     10648000 
   89500      305.309   -266.22158   -1971478.2    175745.08   -1795733.2   -2132443.7    67055.551    43386.744    48598.178    1924.9681     10648000 
   90000    306.33759   -251.09782   -1972087.7    176337.16   -1795750.6   -2132221.5    66931.519    42994.974    48305.157    1902.1152     10648000 
   90500    306.02608   -264.47341   -1971969.6    176157.85   -1795811.8   -2132437.5    66899.088    43423.438    48240.522    1904.8595     10648000 
   91000    305.96298    -280.0491   -1971975.2    176121.53   -1795853.7   -2132195.6    66664.295    43547.201    48123.007    1885.8718     10648000 
   91500    305.62403   -249.77327   -1971655.9    175926.42   -1795729.5   -2132049.5    66833.244     43389.06    48261.824    1909.4431     10648000 
   92000    306.83422   -254.90537   -1972405.2    176623.04   -1795782.1   -2132299.5    66923.909    43004.817    48084.802    1880.8035     10648000 
   92500    305.47115   -205.42577   -1971583.2    175838.41   -1795744.8     -2131913    67000.793    43244.029    48184.742    1900.2183     10648000 
   93000    306.14786   -239.04614   -1971979.4    176227.95   -1795751.5   -2132732.7    66806.928    43285.449    48757.382    1903.5723     10648000 
   93500    305.81062   -263.48515   -1971820.3    176033.83   -1795786.5   -2132264.4    66682.663    43406.142    48448.035    1907.2047     10648000 
   94000    306.55618   -272.40404   -1972186.4    176462.99   -1795723.4   -2132612.9     67040.54    43247.014    48241.777    1897.1658     10648000 
   94500    306.33725   -313.67737   -1972058.1    176336.97   -1795721.2   -2132690.9    67158.947    43232.089    48342.207    1899.5378     10648000 
   95000    306.62326   -270.70587   -1972289.8    176501.61   -1795788.2   -2132801.2    66862.965    43530.217    48225.337     1892.869     10648000 
   95500    306.17249   -268.32744   -1971965.4    176242.13   -1795723.3   -2132638.7    66756.098    43411.634    48577.826    1927.7304     10648000 
   96000    306.05831   -222.66513     -1971821     176176.4   -1795644.6   -2132416.8    67316.279    43150.019    48216.671    1912.7912     10648000 
   96500    306.35557   -279.20638   -1972007.6    176347.51   -1795660.1   -2132593.4    67191.277    43342.622    48143.792    1908.0514     10648000 
   97000    306.11605   -268.50422     -1971844    176209.64   -1795634.4   -2132533.6    67239.858    43512.795    48047.052    1889.8537     10648000 
   97500    306.80097   -283.86883   -1972273.1     176603.9   -1795669.2   -2132726.4    67021.701    43206.354    48317.876    1907.3326     10648000 
   98000    306.19438   -336.46728   -1971880.3    176254.73   -1795625.6   -2132765.8    67131.846    43444.803    48403.776    1905.0779     10648000 
   98500    306.27661   -277.61319   -1971895.7    176302.06   -1795593.6   -2132617.3    67185.063    43343.081    48282.628    1910.8095     10648000 
   99000    306.56438   -254.23267     -1972080    176467.71   -1795612.3   -2132342.3     66987.79    43127.781    48239.956    1906.6956     10648000 
   99500    305.99429   -315.25324   -1971739.2    176139.55   -1795599.7   -2132552.4    66954.343    43399.466    48550.585    1908.7306     10648000 
  100000    306.41032   -264.44947   -1971989.9    176379.03   -1795610.9   -2132644.7    67252.167    43170.538    48315.212    1916.9304     10648000 
  100500    305.77556    -276.6239     -1971542    176013.64   -1795528.4     -2132226    67169.439    43382.218    48217.876    1914.4806     10648000 
  101000    306.60327   -281.38502   -1972069.4     176490.1   -1795579.3   -2132479.7    67046.619    43240.382    48216.234     1907.134     10648000 
  101500     306.4324   -237.35893   -1971908.5    176391.74   -1795516.7   -2132379.7    67045.164    43435.147    48094.966    1896.0028     10648000 
  102000    306.76335   -285.66846   -1972126.3    176582.25   -1795544.1   -2132401.5    67070.808    43059.189    48231.472    1913.6878     10648000 
  102500    306.00888   -231.20367   -1971669.9    176147.95   -1795521.9   -2132203.6    66923.021    43304.484    48381.205    1924.9685     10648000 
  103000    306.49737   -289.97004   -1971986.5    176429.14   -1795557.4   -2132909.6    67010.524     43419.02    48568.262    1925.2264     10648000 
  103500    306.98511   -288.13376   -1972230.5     176709.9   -1795520.6   -2133090.7    67038.995     43226.79    48670.328    1924.0565     10648000 
  104000    307.09097   -237.65484   -1972254.1    176770.83   -1795483.2   -2132902.3    67034.474    43183.979    48522.053    1907.7725     10648000 
  104500    306.69478   -264.04769   -1972026.6    176542.77   -1795483.8     -2132980    67059.126    43362.612    48613.752     1917.978     10648000 
  105000    306.07288      -237.49   -1971599.8    176184.79     -1795415   -2132650.4    67207.598    43520.533    48425.732    1896.7729     10648000 
  105500    306.79816   -249.01483   -1972001.4    176602.28   -1795399.1   -2133123.6    67561.692     43327.68    48313.003    1919.8412     10648000 
  106000    307.19239   -209.22902   -1972292.9    176829.22   -1795463.7   -2132686.1    67054.715    43312.361    48123.306    1902.7434     10648000 
  106500    307.59506   -261.22913   -1972550.3       177061   -1795489.3   -2133191.4    66984.262    43289.183    48458.516    1909.1471     10648000 
  107000    306.85839   -260.79921   -1972056.9    176636.95     -1795420   -2133174.2    67344.186    43260.818    48571.889    1940.4173     10648000 
  107500    307.57685   -288.66972   -1972531.7    177050.52   -1795481.2   -2133353.7    67046.586    43541.464     48334.98    1898.9138     10648000 
  108000    307.26987   -259.61636   -1972357.5    176873.82   -1795483.7   -2133335.1    66911.923    43510.783    48633.706    1921.1549     10648000 
  108500    307.39215   -279.04057   -1972412.7     176944.2   -1795468.5   -2133400.3     67416.52    43365.912    48306.973    1898.1318     10648000 
  109000    307.62788   -305.49387   -1972495.2    177079.89   -1795415.3   -2133654.1    67346.371    43593.268    48328.885    1890.3054     10648000 
  109500    307.95349   -241.08444   -1972722.6    177267.33   -1795455.3   -2133341.4    67042.677    43416.131    48258.932    1901.0598     10648000 
  110000    308.21771   -240.06584   -1972850.9    177419.42   -1795431.5   -2133568.8    66934.112    43382.615    48500.133    1901.0483     10648000 
  110500    306.79234   -286.85029   -1971988.2    176598.93   -1795389.3   -2133287.7    67077.236    43686.171    48632.793    1903.2665     10648000 
  111000    307.83997   -246.35413   -1972562.4    177201.98   -1795360.5   -2133462.3    67379.307    43265.009    48353.192    1902.3921     10648000 
  111500    307.29104   -269.06864   -1972278.4       176886   -1795392.4     -2133308    67313.318    43521.626     48300.48    1894.2258     10648000 
  112000    307.34592   -281.14279   -1972261.6    176917.59     -1795344   -2133108.8    66806.947    43568.066    48567.937    1904.1773     10648000 
  112500    307.37938   -208.33453   -1972259.8    176936.85     -1795323   -2133209.3    67050.742    43257.144     48702.73    1938.8817     10648000 
  113000    307.52802   -292.27172   -1972322.6    177022.41   -1795300.1   -2133619.2    67359.277    43330.579    48687.625    1919.1675     10648000 
  113500    307.15406   -290.70372   -1972062.7    176807.15   -1795255.6   -2133700.2    67558.066    43492.734    48665.893    1920.8288     10648000 
  114000    307.13893   -260.65367   -1972033.2    176798.44   -1795234.8   -2133521.9    67636.208    43370.389    48566.986     1915.024     10648000 
  114500     308.0348    -213.7357   -1972574.9    177314.13   -1795260.8   -2133575.8    67374.004    43132.709    48578.891    1915.2986     10648000 
  115000    308.20004   -357.63255   -1972706.7    177409.25   -1795297.5   -2133875.1    67244.171    43631.146    48387.388    1905.6363     10648000 
  115500     307.7531   -294.93012   -1972414.3    177151.97   -1795262.3   -2133645.5    67437.028    43474.817    48406.872    1912.4407     10648000 
  116000    308.37739   -250.25975   -1972810.3    177511.34   -1795298.9   -2133571.2    66768.848    43582.607    48497.341    1912.1309     10648000 
  116500    307.66306   -227.65725   -1972328.9    177100.15   -1795228.7   -2133361.6    67223.411     43406.16    48500.748    1902.4372     10648000 
  117000      307.784   -322.14753   -1972364.7    177169.76     -1795195   -2133894.2    67455.571    43726.283    48429.328    1918.3023     10648000 
  117500    307.17201   -293.37247   -1971994.5    176817.48   -1795177.1   -2133644.9    67504.496    43885.654    48346.139    1914.0749     10648000 
  118000    307.86863   -222.91316   -1972447.2    177218.48   -1795228.7   -2133581.4    67537.123     43340.48    48352.739    1903.8777     10648000 
  118500    308.98986   -265.53299   -1973103.8    177863.89   -1795239.9   -2134096.1    67205.923    43327.369    48535.606    1923.4304     10648000 
  119000    307.78658   -274.49325   -1972367.1    177171.25   -1795195.8   -2133977.7     67447.38    43583.016    48683.088     1897.162     10648000 
  119500    308.71702   -294.30048     -1972917    177706.84   -1795210.1   -2134159.3    66991.988    43560.971    48770.499     1918.857     10648000 
  120000    308.19604   -237.04872   -1972567.1    177406.94   -1795160.2   -2133853.1    67018.816    43596.088    48731.526    1939.5466     10648000 
  120500    308.28218   -245.57738   -1972608.6    177456.53   -1795152.1   -2133946.8    67320.923    43698.768    48411.856    1906.6149     10648000 
  121000     308.3226   -266.91701   -1972656.2     177479.8   -1795176.4   -2134137.3    67264.809    43681.896     48605.33    1929.0194     10648000 
  121500    308.72496    -239.0166   -1972917.6     177711.4   -1795206.2   -2134244.5    67106.455    43429.689      48863.5    1927.2137     10648000 
  122000    308.04942   -289.48843   -1972463.4    177322.54   -1795140.8   -2134229.7    67347.113    43679.788    48828.204    1911.1881     10648000 
  122500     309.2775   -256.01099   -1973202.7    178029.47   -1795173.2   -2134476.7    67204.908    43481.981    48650.312    1936.7487     10648000 
  123000    303.73402   -254.55839   -1975989.4    174838.47   -1801150.9   -2135035.3        66241    42935.678    47969.761    1899.4579     10648000 
  123500    303.15771   -259.65874     -1975600    174506.73   -1801093.2   -2134972.2    66365.234    43002.984    48126.767    1877.2632     10648000 
  124000    303.83683     -278.522   -1975970.4    174897.65   -1801072.7   -2135106.4    66463.292    42818.519    47964.609    1889.6013     10648000 
  124500    303.63541   -266.60142   -1975924.6    174781.71   -1801142.9     -2135090    66174.548    42908.656    48163.116    1919.1344     10648000 
  125000    304.26581   -250.64282   -1976271.8    175144.58   -1801127.2   -2135344.5    66104.237    42876.755    48177.873    1913.8013     10648000 
  125500    304.52933   -317.14379   -1976465.9    175296.27   -1801169.6   -2135403.8    66017.959    42927.854    48112.832     1879.243     10648000 
  126000    303.65718   -274.57033   -1975885.2    174794.24     -1801091   -2135050.6    66317.942     42923.47    48035.239    1888.7019     10648000 
  126500    303.99106   -304.27204   -1976099.9    174986.43   -1801113.5   -2135121.7    66225.253    42963.609    47928.371    1904.5224     10648000 
  127000    304.63847   -323.62513   -1976495.5     175359.1   -1801136.4   -2135389.9    66240.466    42491.517    48264.311    1898.1823     10648000 
  127500    304.39477   -260.98169   -1976251.8    175218.82     -1801033   -2135549.1    66491.649    42912.859    47998.897    1893.8475     10648000 
  128000    303.42685   -293.42238   -1975734.3    174661.66   -1801072.7   -2135019.1    66253.827     42947.95    48168.636     1914.322     10648000 
  128500     304.4609   -211.62663   -1976322.3    175256.89   -1801065.4   -2135491.4    66224.645    42925.734    48141.245    1877.4663     10648000 
  129000    304.71978   -328.54047     -1976441     175405.9   -1801035.1   -2135468.5    66406.477    42824.286    47918.028    1878.6978     10648000 
  129500    303.82996   -281.04436   -1975954.5     174893.7   -1801060.8   -2135378.2    66336.667    42880.245    48286.522    1920.2781     10648000 
  130000    304.30815   -201.65435   -1976165.5    175168.96   -1800996.5   -2135766.5    66414.878    43019.288    48268.107    1898.7745     10648000 
  130500     305.0111   -272.82944   -1976584.4     175573.6   -1801010.8   -2135611.6    66268.688    42778.824    48098.435    1881.2478     10648000 
  131000    304.15704   -289.20476   -1976105.5    175081.97   -1801023.5   -2135290.6    66167.409     42983.94    48142.373    1891.3917     10648000 
  131500    303.94783   -214.84606   -1975892.7    174961.55   -1800931.2   -2135313.3    66311.786    43088.165    48115.687    1904.9725     10648000 
  132000     304.3432   -255.93351   -1976130.7    175189.13   -1800941.6   -2135452.6    66306.709    43211.974     47915.86    1887.4058     10648000 
  132500    304.49827   -234.95479   -1976214.5     175278.4   -1800936.1   -2135607.5    66590.647    42905.795    48009.294    1887.2894     10648000 
  133000    304.68385   -246.39189     -1976368    175385.22   -1800982.8   -2135547.5    66206.846     42938.57    48149.812    1884.3406     10648000 
  133500    304.32494   -251.76815   -1976078.7    175178.62   -1800900.1   -2135737.6    66406.797    43038.697    48303.072    1910.3982     10648000 
  134000    304.54277   -255.71283   -1976202.7    175304.01   -1800898.7     -2135959    66599.256    42992.074    48235.714     1929.281     10648000 
  134500     303.9385   -307.27565   -1975828.6    174956.18   -1800872.4   -2135810.6    66609.676    43282.198    48177.574    1912.6025     10648000 
  135000     305.6454   -321.13321   -1976880.3    175938.72   -1800941.6   -2136090.2    66598.205    42817.927    47905.596    1888.0963     10648000 
  135500    303.97177    -268.1043   -1975810.7    174975.33   -1800835.4   -2135860.1    66544.393     43186.51    48412.148    1906.2857     10648000 
  136000    304.70754   -291.76799     -1976255    175398.86   -1800856.1   -2136121.5    66706.174    43080.094      48190.3    1889.9687     10648000 
  136500    304.94562    -263.3183   -1976454.7    175535.91   -1800918.8   -2135791.8     66386.97    42839.132    48219.534    1891.4914     10648000 
  137000    305.48093   -185.49789   -1976756.6    175844.04   -1800912.6   -2135544.8    66288.194    42749.412    47841.218    1909.3782     10648000 
  137500    305.42605    -308.2252   -1976697.1    175812.45   -1800884.6   -2135995.1    66409.607    42960.763    48034.096    1893.5657     10648000 
  138000    304.49112   -246.93116   -1976107.8    175274.28   -1800833.5   -2135858.9    66715.444    42980.305     48159.92    1895.4803     10648000 
  138500    304.90399    -302.3448   -1976348.6    175511.94   -1800836.6   -2136205.1    66774.444    43183.116    47995.525    1903.4021     10648000 
  139000    305.60991    -246.1619   -1976757.7    175918.29   -1800839.4   -2136407.7    66545.405    43231.288    47982.716    1890.5539     10648000 
  139500    304.41033   -226.45415   -1976008.7    175227.78   -1800780.9   -2135719.3    66357.178    42881.688     48557.82    1913.9944     10648000 
  140000    304.84886   -291.87528   -1976277.4     175480.2   -1800797.2   -2136347.8      66661.5    43169.581    48342.934    1896.3499     10648000 
  140500    304.88594   -273.51881   -1976234.1    175501.55   -1800732.6   -2136419.8    67093.929    43035.649    48158.474    1897.6421     10648000 
  141000    305.11738   -302.37368   -1976410.3    175634.77   -1800775.5   -2136142.6    66502.276    43189.517    48126.495    1914.0371     10648000 
  141500    305.05995   -291.93091     -1976393    175601.72   -1800791.3   -2136359.8    66640.085    42988.101    48424.792     1913.806     10648000 
  142000    304.37937   -296.16413   -1975886.2    175209.96   -1800676.2   -2136012.6    67087.048    43008.564    48131.487    1899.3056     10648000 
  142500     304.9206   -282.49118     -1976245    175521.51   -1800723.5   -2136103.4    66759.757    42925.804    48267.432     1905.364     10648000 
  143000    304.92924   -258.29338   -1976192.8    175526.48   -1800666.3   -2136218.7    66630.259    43223.548    48261.934    1910.1491     10648000 
  143500    305.26067   -275.77367   -1976416.9    175717.26   -1800699.6   -2136301.9    66482.243    43205.755    48288.329    1908.6749     10648000 
  144000    305.41411   -285.95951   -1976491.3    175805.58   -1800685.8   -2136113.5    66806.499    43167.956    47756.095    1891.6533     10648000 
  144500    305.47855   -293.39287   -1976539.5    175842.67   -1800696.8   -2136548.4    66668.278    43457.288    47980.821    1902.5349     10648000 
  145000    305.64129   -271.99726     -1976651    175936.35   -1800714.6   -2136287.4    66683.989    43056.219      48000.5    1895.7301     10648000 
  145500    305.60329   -252.43503   -1976665.5    175914.48     -1800751   -2136555.9    66443.436     43383.54    48164.111    1899.2941     10648000 
  146000    304.86723   -288.78596   -1976164.8    175490.78     -1800674   -2136411.4    67088.147     43241.89    48012.679    1903.9151     10648000 
  146500    305.88607   -220.68801   -1976774.2    176077.26   -1800696.9   -2136516.6    66438.835    42924.226    48454.136    1925.2429     10648000 
  147000    305.70023   -228.58031   -1976693.3    175970.28     -1800723   -2136675.8    66596.893    43223.101    48239.479    1922.9861     10648000 
  147500    305.57822   -281.81525   -1976537.3    175900.05   -1800637.2   -2136696.3    66993.121    43140.693    48122.732    1902.4921     10648000 
  148000    305.21109   -307.56942   -1976356.6    175688.72   -1800667.9     -2136748    66930.991    43306.295    48271.188    1882.9533     10648000 
  148500    305.80961   -232.74409   -1976724.8    176033.25   -1800691.6     -2136724    66508.636    43333.662    48239.678    1917.2564     10648000 
  149000    304.93902   -263.13053   -1976096.7     175532.1   -1800564.6   -2136661.4    67174.133    43063.936    48416.239    1910.4108     10648000 
  149500    304.76619   -314.90317   -1976021.1    175432.62   -1800588.4     -2136266    67163.166    43085.604    48088.115    1908.0331     10648000 
  150000    305.57485   -255.91543   -1976501.3    175898.11   -1800603.2   -2136536.5    66740.613    42919.971    48456.738    1917.8829     10648000 
  150500    305.39801   -293.29101   -1976440.6    175796.31   -1800644.3   -2136658.3    66735.755    43293.619    48274.656    1913.6391     10648000 
  151000     305.9381   -273.39103   -1976709.9    176107.21   -1800602.7   -2137023.6    66886.835    43210.096     48302.43    1914.4041     10648000 
  151500    306.47601   -265.10711   -1977005.4    176416.85   -1800588.6   -2136683.1    66874.006    42868.764     48048.28    1886.5946     10648000 
  152000    305.79783   -319.10086     -1976637    176026.46   -1800610.5   -2136496.9    66677.652    43204.295    48088.609    1889.3964     10648000 
  152500    305.39801   -260.60382   -1976383.9    175796.31   -1800587.6   -2136415.9    66810.893    43187.245    48122.711    1911.1787     10648000 
  153000    305.14764   -300.52333   -1976198.4     175652.2   -1800546.2   -2136201.6    66612.038    43058.551    48413.211    1919.3925     10648000 
  153500    305.52102    -256.7637   -1976451.5    175867.12   -1800584.4   -2136306.2    66491.041     43183.71    48270.322    1909.6591     10648000 
  154000    305.73503     -278.015   -1976547.6    175990.31   -1800557.3     -2136412     66563.48    43168.764     48237.53    1894.6281     10648000 
  154500    305.38961   -278.62582     -1976283    175791.48   -1800491.5   -2136661.2    66770.375    43567.735     48153.09    1887.0581     10648000 
  155000    306.08621   -282.46073   -1976719.9    176192.46   -1800527.5   -2136689.1    66577.441    43391.029    48102.084    1898.5845     10648000 
  155500    306.85752   -271.41918   -1977133.9    176636.45   -1800497.5   -2136833.8    66621.844    43247.995    47925.878    1904.1049     10648000 
  156000    305.45054   -306.76854   -1976290.6    175826.55   -1800464.1   -2136552.3    66929.543    43201.629    48220.742    1909.7231     10648000 
  156500    304.97961   -298.11342   -1976005.6    175555.47   -1800450.1   -2136461.7    67158.665    43399.919    47995.049    1902.4557     10648000 
  157000    306.23185   -262.98839   -1976766.4     176276.3   -1800490.1   -2136886.4    66716.884    43239.486    48244.086    1919.6047     10648000 
  157500    305.42233   -231.38967   -1976288.4    175810.31     -1800478   -2136671.7    66895.119    43367.831    48225.155     1895.192     10648000 
  158000    306.56712   -275.71067   -1976902.3    176469.29     -1800433     -2136953    66848.467    43385.815      47930.8    1885.5945     10648000 
  158500    306.42565   -276.48101   -1976776.2    176387.86   -1800388.3   -2136921.5    67093.471    43008.839    48151.918    1891.1257     10648000 
  159000    305.85028   -232.12869   -1976395.7    176056.66   -1800339.1     -2136753    67103.171    43254.873     48120.86    1878.3379     10648000 
  159500    306.49742   -239.63433   -1976864.6    176429.17   -1800435.4   -2137022.1    66701.911    43279.872    48262.663    1913.0243     10648000 
  160000    306.27048    -240.9751   -1976703.5    176298.53     -1800405   -2136791.1    66781.842    43182.649    48224.053    1899.1015     10648000 
  160500    305.88268   -264.84906   -1976490.8    176075.31   -1800415.5     -2136863    66772.367    43334.083    48362.557    1903.1956     10648000 
  161000    305.79353   -283.73097   -1976372.1    176023.99   -1800348.2   -2136871.9    67073.894    43235.011    48280.511    1910.3097     10648000 
  161500    306.00703   -220.64057     -1976548    176146.89   -1800401.1   -2136901.5    66885.516    43275.279    48298.971    1893.8189     10648000 
  162000     306.0353   -279.99435   -1976525.6    176163.16   -1800362.4   -2137040.7    67235.503    43147.286    48223.875    1908.4577     10648000 
  162500    306.23356   -281.17343   -1976599.9    176277.28   -1800322.6   -2137165.8    66979.178    43434.001    48231.244    1921.4399     10648000 
  163000    306.00942   -303.06522   -1976532.6    176148.26   -1800384.4   -2136618.3    67084.496    42980.799    48099.411    1920.9949     10648000 
  163500    306.11313   -211.47128     -1976540    176207.96     -1800332   -2136800.1    66683.538    43231.742    48408.878      1935.98     10648000 
  164000    306.18895   -252.64183   -1976568.6    176251.61     -1800317   -2136974.1    66658.932    43471.167     48353.79    1921.5812     10648000 
  164500    305.98734   -320.66188   -1976428.1    176135.55   -1800292.5   -2136879.8    67222.732    43124.441    48198.646    1905.9224     10648000 
  165000    306.47973   -264.45883   -1976769.9    176418.98     -1800351   -2137047.7    66846.318    43458.384    48063.615    1909.4211     10648000 
  165500    306.28983   -272.35044   -1976568.3    176309.68   -1800258.6   -2137103.7    67131.033    43239.847    48258.459    1906.0751     10648000 
  166000    306.64881   -228.91475   -1976791.4    176516.31   -1800275.1   -2137047.7    66554.917    43448.795    48347.799    1904.7142     10648000 
  166500    306.90804   -224.27227   -1976915.2    176665.53   -1800249.7   -2136895.3    66926.276    42969.003    48187.901    1896.8956     10648000 
  167000    306.77642   -293.63165   -1976823.3    176589.77   -1800233.6     -2137193    67050.197    43313.529    48116.292    1889.5996     10648000 
  167500    306.79205   -282.66958   -1976802.3    176598.77   -1800203.5   -2137103.7     67055.37    42986.935    48358.829    1900.2596     10648000 
  168000    306.15908   -258.98073   -1976418.2    176234.41   -1800183.8   -2136864.4    67023.014    43158.908    48367.184    1897.0654     10648000 
  168500    306.44263   -261.39128   -1976564.5    176397.63   -1800166.9   -2136858.2    66981.327    43230.332        48181    1901.0689     10648000 
  169000    306.64752   -232.90608   -1976669.7    176515.57   -1800154.1   -2136637.3    66537.535    43289.392    48225.902    1914.8012     10648000 
  169500    307.78982   -260.84372   -1977415.1    177173.11     -1800242   -2136990.3    66596.757    43065.334    48012.786    1900.3397     10648000 
  170000     306.8048   -295.25681   -1976773.7     176606.1   -1800167.6   -2137176.3    66753.569    43347.984    48377.031    1924.0122     10648000 
  170500    306.20925   -281.29333   -1976390.8    176263.29   -1800127.5     -2136881    66967.214    43220.588     48407.54    1894.7771     10648000 
  171000    306.35079   -286.63221   -1976446.6    176344.77   -1800101.8   -2136946.7    67049.594    43200.352    48344.231    1905.9044     10648000 
  171500    306.79658   -298.97742   -1976717.4    176601.37     -1800116   -2137065.3    67006.243     43155.68    48280.636    1905.3516     10648000 
  172000    305.02865   -351.01307   -1975605.7     175583.7     -1800022   -2137027.3    67283.718    43645.986    48584.879    1906.9643     10648000 
  172500    307.76596   -225.19259   -1977288.9    177159.38   -1800129.5   -2137238.1    66568.147    43224.465     48263.53    1893.0273     10648000 
  173000    306.78866   -277.20845   -1976682.4    176596.82   -1800085.5   -2137363.3     67104.53    43317.696    48374.132    1884.6257     10648000 
  173500    307.44125   -317.62868   -1977073.6    176972.47   -1800101.2   -2137088.2    66823.943    43199.145    48097.834    1893.6752     10648000 
  174000    306.78174   -272.78024   -1976697.6    176592.83   -1800104.8   -2137360.4    67079.316    43472.905    48214.815    1895.7563     10648000 
  174500    307.17896   -229.75447   -1976951.1    176821.48   -1800129.6   -2137382.5    66901.621    43378.295     48255.17    1896.3089     10648000 
  175000    307.03711   -231.30803   -1976818.5    176739.83   -1800078.7   -2137402.2    66744.327    43248.809    48676.402    1914.1335     10648000 
  175500    306.66928   -309.71739     -1976595     176528.1   -1800066.9   -2137361.7      67025.2    43555.052    48265.092    1921.3374     10648000 
  176000    306.76886   -305.50057   -1976631.7    176585.42   -1800046.3   -2137329.3    67054.273    43473.661    48259.446    1910.1716     10648000 
  176500    307.26569   -242.42901   -1976943.4    176871.41     -1800072   -2137193.3    66758.299    43455.573    48127.311    1908.6824     10648000 
  177000    306.84265   -233.50773   -1976672.8    176627.89   -1800044.9   -2137116.3    67065.178    43171.353    48302.057      1904.88     10648000 
  177500    307.27126   -280.93439   -1976937.7    176874.61   -1800063.1   -2137176.8    66834.098    43230.934    48262.511    1911.5341     10648000 
  178000    306.63827   -279.03712   -1976532.2    176510.24     -1800022   -2137333.7    67127.111    43186.898    48571.961    1915.4829     10648000 
  178500    307.43626   -229.62675   -1977011.1    176969.59   -1800041.6   -2137364.1    66700.612    43220.213    48506.046    1926.0601     10648000 
  179000    307.12516    -277.7528   -1976774.7    176790.52   -1799984.2   -2137737.2    67334.262    43331.485    48379.419    1917.3429     10648000 
  179500    307.12641   -246.69642     -1976777    176791.23   -1799985.8   -2137451.2     67092.11    43484.331     48206.13    1891.6002     10648000 
  180000     307.3178   -284.53601   -1976909.8     176901.4   -1800008.4     -2137569     67012.29    43454.415    48302.716    1889.8074     10648000 
  180500    306.84389   -265.38941   -1976604.9    176628.61   -1799976.3   -2137697.8    67240.011    43496.957    48444.752    1911.1671     10648000 
  181000    307.89664   -301.64589   -1977241.3     177234.6   -1800006.7   -2137580.6    66827.406    43382.176    48224.642    1905.0779     10648000 
  181500    306.73778   -272.31468   -1976538.7    176567.53   -1799971.2   -2137477.9    66891.461    43904.006    48233.522    1910.1727     10648000 
  182000    306.73126   -300.31845   -1976484.2    176563.78   -1799920.4   -2137358.3    67037.904    43494.277    48425.166    1916.7358     10648000 
  182500    306.94276   -274.07872   -1976542.8    176685.52   -1799857.3     -2137398    67253.603     43537.31    48155.937    1908.3105     10648000 
  183000    308.30424   -237.16503   -1977411.1    177469.23   -1799941.9   -2137650.7      66834.2    43553.564    47957.362    1894.4368     10648000 
  183500     307.7197   -251.34109   -1977038.4    177132.75   -1799905.6   -2137209.8    66700.568    43344.677    48217.489    1908.6257     10648000 
  184000    307.25541   -256.51665   -1976724.1    176865.49   -1799858.6   -2137722.3    67117.428    43552.138    48432.962    1895.6935     10648000 
  184500    307.57007   -278.36991   -1976942.8    177046.62   -1799896.2   -2137538.5    66908.273    43563.203    48216.291    1907.9231     10648000 
  185000    308.26698   -265.84305   -1977377.9    177447.78   -1799930.1   -2137765.7    66726.303     43384.19    48356.547    1920.7426     10648000 
  185500    307.65141   -292.02194   -1976920.1    177093.44   -1799826.7   -2137692.4    67188.115    43373.692     48303.04    1907.4482     10648000 
  186000    307.65944   -275.35926   -1976997.2    177098.06   -1799899.1   -2137669.4    66794.118    43724.713    48250.624     1902.822     10648000 
  186500    307.55085   -308.97451     -1976861    177035.55   -1799825.4   -2138002.9    67052.599    43524.048    48639.271    1926.0074     10648000 
  187000    307.42792    -233.3342   -1976820.8    176964.79     -1799856   -2137641.8    67088.697    43501.143    48329.716    1901.5134     10648000 
  187500    307.10782   -243.44393   -1976636.3    176780.53   -1799855.8   -2137652.1    66901.123    43724.867     48465.03    1924.7886     10648000 
  188000    307.31685    -292.2417   -1976721.4    176900.86   -1799820.6   -2137817.5    67116.392    43481.843     48572.96    1924.8679     10648000 
  188500    307.49019    -270.4759     -1976837    177000.64   -1799836.4   -2137923.5    67213.082    43477.524    48483.015    1912.8245     10648000 
  189000    308.49827   -211.10165     -1977432    177580.92     -1799851   -2138284.3    67015.302    43483.628    48421.546    1931.8713     10648000 
  189500     307.7854   -337.33476   -1976951.4    177170.57   -1799780.8   -2137762.5    67196.101    43464.255     48255.44    1895.2772     10648000 
  190000    307.55628   -234.97567   -1976840.6    177038.68   -1799801.9     -2137683     67175.16    43287.464     48480.68    1899.0748     10648000 
  190500     307.3956   -224.64513   -1976723.7    176946.19   -1799777.5   -2137759.8    67226.653    43271.376     48613.59    1924.4531     10648000 
  191000      307.771   -254.65354   -1976904.9    177162.28   -1799742.6   -2137547.2    66969.428    43413.423    48334.338    1925.1557     10648000 
  191500    307.62734   -350.21319   -1976846.7    177079.59   -1799767.1   -2138064.7    67254.721    43630.616    48405.407     1927.296     10648000 
  192000    308.31733    -243.0742     -1977219    177476.76   -1799742.2   -2138383.5    67100.982    43484.577    48649.629    1929.3433     10648000 
  192500    307.55902   -256.10354   -1976794.4    177040.26   -1799754.1   -2137830.9    67235.379    43402.062    48496.409    1902.6172     10648000 
  193000    307.73799   -322.21387   -1976822.3    177143.28     -1799679   -2138018.7    67314.089    43553.694    48418.534    1910.1122     10648000 
  193500    307.40921   -298.68922   -1976651.8    176954.02   -1799697.8   -2137670.5    67076.103    43770.741    48255.483    1916.3697     10648000 
  194000    308.55987    -212.3588   -1977252.1    177616.38   -1799635.7     -2138123    67593.956     43388.65    47982.993     1905.291     10648000 
  194500    308.62022   -226.79382   -1977363.6    177651.12   -1799712.5   -2138217.1      67047.8    43689.744    48215.492    1900.4454     10648000 
  195000    307.73267   -289.18471   -1976802.5    177140.21   -1799662.3   -2137890.8    67392.774    43441.416    48326.543     1927.524     10648000 
  195500    308.17544   -307.02392   -1977131.8    177395.09   -1799736.7   -2138142.5    67365.758     43228.75    48493.121    1923.0551     10648000 
  196000    308.27576   -253.16151   -1977178.7    177452.84   -1799725.9   -2137873.8    67235.241    43190.267    48351.101    1918.4904     10648000 
  196500    308.32001   -237.28819   -1977154.3    177478.31     -1799676   -2138163.1    67231.974    43398.351    48470.997    1907.4781     10648000 
  197000    307.02207   -258.92056   -1976330.3    176731.17   -1799599.2   -2138115.3    67714.969    43553.699    48603.391      1912.97     10648000 
  197500     307.8853   -291.03992   -1976847.1    177228.07     -1799619     -2138167    67764.403    43199.809     48448.43     1907.245     10648000 
  198000    308.00722   -268.00115     -1976931    177298.25   -1799632.7   -2138125.3    67491.995    43519.498    48271.265    1911.6054     10648000 
  198500    307.33437   -291.34479   -1976513.6    176910.94   -1799602.7   -2137999.1    67351.725    43651.315     48552.81    1929.6989     10648000 
  199000    307.92541   -264.10261   -1976847.1    177251.16     -1799596   -2138177.5    67361.057      43741.7    48304.343    1923.3172     10648000 
  199500    308.13646    -286.9495   -1976972.2    177372.65   -1799599.5   -2138601.2    67537.681    43504.171    48663.568    1923.6114     10648000 
  200000    307.98591   -269.04105     -1976879    177285.99     -1799593   -2138036.5    67401.727    43329.216    48489.812    1936.7892     10648000 
  200500    308.12159    -176.8181     -1976947    177364.09   -1799582.9   -2138083.1    67137.601    43531.558     48540.38    1926.5876     10648000 
  201000    308.36919   -311.36015   -1977068.4    177506.62   -1799561.8   -2138480.6    67499.734    43432.792    48547.613    1932.0947     10648000 
  201500     308.5815   -308.46578     -1977148    177628.83   -1799519.2   -2138634.6    67344.974    43660.812    48560.423    1920.3248     10648000 
  202000    307.81372    -310.9159   -1976688.5    177186.87   -1799501.7   -2138105.4    67619.624    43534.561    48343.611    1919.0544     10648000 
  202500    309.12872   -253.04126   -1977494.5    177943.83   -1799550.7   -2138176.5    67160.438    43319.705    48297.424    1904.4476     10648000 
  203000    308.37494   -270.77721   -1977019.7    177509.92   -1799509.8   -2138256.7    67437.781    43430.039    48459.402    1909.7637     10648000 
  203500    308.02769   -258.23701   -1976766.8    177310.04   -1799456.7   -2138670.2    67801.021    43478.188    48703.276    1920.9585     10648000 
  204000    308.72393   -296.90148   -1977197.5    177710.81   -1799486.7   -2138440.1    67147.122    43494.724    48681.703    1919.0329     10648000 
  204500    308.75649   -258.34479   -1977209.4    177729.56   -1799479.8   -2138461.3    67191.297    43740.636    48415.724    1904.2909     10648000 
  205000    308.34032   -280.58347   -1976971.5       177490   -1799481.5   -2138269.9    67453.877    43685.073    48236.401    1923.0619     10648000 
  205500    308.63259   -313.18213   -1977101.2    177658.24     -1799443   -2138784.7    67535.462    43827.351     48397.23    1923.4658     10648000 
  206000    309.21558   -330.44867   -1977487.2    177993.82   -1799493.4   -2138453.8     67305.96    43522.212    48247.321    1891.1003     10648000 
  206500    308.78229   -219.34445   -1977172.8    177744.41   -1799428.4   -2138205.8    67242.246    43561.994    48324.721    1904.0129     10648000 
  207000    308.72837    -195.8744   -1977119.6    177713.37   -1799406.3   -2137920.9    67204.311    43462.048    48228.816    1906.0853     10648000 
  207500    308.87385   -205.19321   -1977175.1    177797.11     -1799378     -2138254    67491.311    43443.265     48248.71     1895.645     10648000 
  208000    308.73769   -306.91714   -1977110.9    177718.74   -1799392.1   -2138144.6    67356.387     43658.25    48124.631    1894.4944     10648000 
  208500    309.16505   -280.25036     -1977332    177964.74   -1799367.3     -2138458     67216.54    43627.127    48369.494    1912.8343     10648000 
  209000    308.59758   -328.55321   -1977017.2    177638.08   -1799379.2   -2138415.7    67341.409    43365.899    48767.351    1923.8192     10648000 
  209500    308.34624   -266.61172   -1976859.2    177493.41   -1799365.7   -2138524.3     67289.57    43735.149    48707.066    1933.3501     10648000 
  210000    303.79141    -285.3341   -1980248.4    174871.51   -1805376.9     -2139524    66274.923    42968.828    48134.118    1897.7408     10648000 
  210500    303.97642   -292.64635     -1980349       174978     -1805371   -2139162.3     66091.39    42981.979    47854.694    1885.1994     10648000 
  211000    303.38313   -262.98677   -1979930.5    174636.49     -1805294   -2139589.1    66617.269    43198.122    47947.876    1895.3468     10648000 
  211500    303.57712   -284.17607   -1980021.3    174748.15   -1805273.1   -2139504.9    66667.323    42952.226    47983.061    1881.0598     10648000 
  212000    303.87227   -281.67775   -1980271.4    174918.05   -1805353.3   -2139454.4    66265.429    43215.664    47821.073    1880.8437     10648000 
  212500    303.90222   -288.55874   -1980240.8    174935.29   -1805305.6   -2139133.2    66640.878    42687.127    47685.199    1879.1277     10648000 
  213000    302.87596   -293.04112     -1979605    174344.55   -1805260.5   -2139279.4    66337.251    43272.306    48157.615    1907.2504     10648000 
  213500    303.25747   -272.12882   -1979801.9    174564.16   -1805237.7   -2139461.3     66778.92    43027.315    47970.541      1882.62     10648000 
  214000    304.75124   -270.76347   -1980667.1    175424.02     -1805243   -2139599.7    66252.075    42889.745    47897.138    1893.7064     10648000 
  214500    303.78196    -237.3457   -1980081.8    174866.07   -1805215.7   -2139559.1    66408.385    43158.462    48032.603    1877.8352     10648000 
  215000    304.25076   -238.20468   -1980411.4    175135.92   -1805275.5   -2139853.5    66078.503    43096.988    48359.252    1907.3263     10648000 
  215500    304.71416   -250.47168   -1980626.5    175402.67   -1805223.8   -2139758.8    66406.295    42834.011    48002.201    1889.8649     10648000 
  216000    304.17253    -263.1098   -1980224.9    175090.89     -1805134   -2139717.3    66639.812    42818.275    48127.888     1906.413     10648000 
  216500    304.48027   -272.64483     -1980419    175268.04     -1805151   -2139860.1    66724.675    42969.035    47862.866    1884.5115     10648000 
  217000    303.74629   -279.98833   -1980001.7    174845.53   -1805156.2   -2139603.6     66636.87    43080.996     47989.18    1894.8116     10648000 
  217500    303.89573   -247.17021   -1980090.6    174931.56   -1805159.1   -2139755.3    66582.735    43105.959    48072.136    1903.8347     10648000 
  218000    304.36151    -239.7441     -1980412    175199.68   -1805212.3     -2139581     66490.34    42977.509    47816.424    1884.7303     10648000 
  218500    304.57112   -238.64542   -1980450.8    175320.33   -1805130.4   -2139660.9    66303.979    43164.978    47849.657    1891.5554     10648000 
  219000    304.32708   -246.96422     -1980290    175179.85   -1805110.2   -2139780.5    66451.934    42965.854    48178.471    1894.2647     10648000 
  219500    303.68581   -276.69585   -1979951.4    174810.72   -1805140.7   -2139832.6    66334.653    43301.792    48330.775    1913.9203     10648000 
  220000    304.34741   -270.07314   -1980253.5    175191.56     -1805062     -2139598    66434.796    43304.652     47729.43    1875.5905     10648000 
  220500    304.73184   -291.48555   -1980481.1    175412.85   -1805068.2   -2140061.7    66637.772    42989.939    48053.759    1899.1521     10648000 
  221000    304.27075   -242.59649   -1980212.5    175147.43   -1805065.1   -2139738.7    66400.442    43218.262    48011.966    1895.4684     10648000 
  221500    304.15829   -267.49699   -1980136.7    175082.69     -1805054   -2139864.5    66675.983    43123.552      48016.8    1911.4515     10648000 
  222000    304.61939   -261.26666     -1980379    175348.12   -1805030.9   -2139727.6    66549.313    43045.538    47866.135    1887.5668     10648000 
  222500    304.15158   -252.06548   -1980085.7    175078.83   -1805006.9   -2139709.1     66962.12    43044.012    47727.706    1889.4905     10648000 
  223000    303.92454   -285.85299   -1980021.6    174948.14   -1805073.5     -2139475    66739.454    42939.258    47886.592    1888.1284     10648000 
  223500    304.62071   -314.65806   -1980396.7    175348.88   -1805047.8   -2139919.5    66783.367     42852.54    47982.946    1903.9854     10648000 
  224000    304.28166   -287.18753   -1980180.1    175153.71   -1805026.4   -2139679.1    66635.247    42994.404    47971.037    1898.2904     10648000 
  224500    303.96689   -290.48491   -1979975.3    174972.52   -1805002.7   -2139626.8     66713.46     43046.27     47997.25    1894.5456     10648000 
  225000    305.02028   -281.80527   -1980605.8    175578.88   -1805026.9   -2139981.4    66589.982    42941.668    47957.862     1886.083     10648000 
  225500    304.25419   -257.30275   -1980134.4     175137.9   -1804996.5   -2139047.1    66567.279    42795.437    47682.428    1867.4898     10648000 
  226000    304.63859   -249.63861   -1980333.2    175359.17     -1804974     -2139839    66646.174    43035.665    47929.738    1894.2629     10648000 
  226500    304.40264   -255.67494   -1980180.1    175223.35   -1804956.8   -2139754.6    66582.886     42865.74    48229.656    1896.1646     10648000 
  227000    304.10331   -302.37287   -1979985.2    175051.04   -1804934.1     -2139683    66916.995    42873.919    47996.937    1909.9637     10648000 
  227500     304.6344   -321.59939   -1980284.7    175356.76   -1804927.9   -2139549.3    66827.607    42911.098    47640.161    1885.7415     10648000 
  228000    304.07139   -275.41103   -1979941.2    175032.67   -1804908.6   -2139927.4     66781.26    43274.112     48021.68    1909.0727     10648000 
  228500    304.48044   -333.73325   -1980257.5    175268.14   -1804989.4   -2139775.3    66449.524    43160.191    48003.726    1904.3286     10648000 
  229000    304.56589    -219.4499   -1980241.4    175317.32     -1804924   -2139633.4     66605.07    43202.508    47705.729    1878.7308     10648000 
  229500    304.93918   -277.75578   -1980444.8     175532.2   -1804912.6   -2139967.8    66682.537    43146.075     47790.36    1904.0144     10648000 
  230000     305.2594    -276.9432   -1980668.4    175716.53   -1804951.8   -2140094.1     66552.67    42821.273    48152.719    1899.1195     10648000 
  230500    304.06581   -231.43203   -1979869.8    175029.46   -1804840.4   -2139908.3    66702.434    43040.126    48385.059    1910.8721     10648000 
  231000    305.19578   -301.22858   -1980568.6    175679.91   -1804888.7   -2140450.3    66646.564    43083.039    48241.697    1910.4819     10648000 
[...]
  493500    308.05009   -263.87349   -1982833.1    177322.93   -1805510.1   -2143901.7    67506.929    43351.027    48310.228    1900.4113     10648000 
  494000    308.19994     -292.509   -1982954.4    177409.19   -1805545.2   -2143727.1    67518.321    43346.301    48014.542     1893.525     10648000 
  494500    308.65002   -326.71746   -1983184.5    177668.27   -1805516.2   -2144122.3    67495.219    43333.009    48177.636    1931.9308     10648000 
  495000    307.93518   -204.62335   -1982787.1    177256.79   -1805530.3   -2143951.9    67454.385    43414.861    48391.197    1904.3354     10648000 
  495500    307.88347    -273.5589   -1982735.7    177227.02   -1805508.7   -2143665.9    67393.484    43215.662    48379.465    1941.5193     10648000 
  496000    308.58039   -259.17847   -1983131.6    177628.19   -1805503.4   -2143849.2    67507.582    43220.087     48090.44    1899.4865     10648000 
  496500    307.57199   -275.36451   -1982524.8    177047.72   -1805477.1   -2143394.4    67142.728     43615.48    48193.015    1918.3609     10648000 
  497000     307.7926   -273.13586   -1982638.3    177174.71   -1805463.6   -2143593.4    67405.212    43544.574    48110.023    1895.2703     10648000 
  497500    307.55876   -262.79763   -1982483.8    177040.11   -1805443.7   -2143903.3    67728.471    43516.323    48254.585    1920.1466     10648000 
  498000     308.0197   -229.75448   -1982688.5    177305.44   -1805383.1     -2143919    67546.098    43356.853    48415.391    1912.1566     10648000 
  498500    307.92192   -281.88599   -1982679.7    177249.15   -1805430.5   -2143613.7    67459.425    43390.375    48175.083    1909.1147     10648000 
  499000    308.34903   -277.78727   -1982974.7    177495.01   -1805479.7   -2143784.2    67192.134    43358.105    48339.186    1920.0509     10648000 
  499500    308.00218   -314.62083   -1982672.5    177295.35   -1805377.1     -2143366    67471.544    43224.117    48088.834    1908.9987     10648000 
  500000    308.06763   -250.78409   -1982712.8    177333.03   -1805379.8   -2143764.4    67400.341    43431.237    48294.247    1925.7264     10648000 
  500500     307.4466   -275.55075   -1982376.8    176975.55   -1805401.2   -2143603.1    67429.929    43621.731    48242.343    1932.3108     10648000 
  501000    308.45258    -272.0956   -1982877.3    177554.62   -1805322.7   -2143887.9    67207.763    43643.254    48240.983    1918.5973     10648000 
  501500    308.51624   -276.12984   -1982977.3    177591.26     -1805386   -2143350.1    67376.538    43186.799    47889.238    1920.1839     10648000 
  502000    308.16102   -201.43854   -1982798.5    177386.79   -1805411.7   -2143449.2    67155.276    43550.069    48046.317    1899.0628     10648000 
  502500    308.21427   -249.12626     -1982757    177417.44   -1805339.6   -2143767.9    67319.197    43641.353    48129.871    1920.4783     10648000 
  503000    307.66547   -244.72418   -1982393.6    177101.54   -1805292.1   -2143742.9    67524.477    43830.327    48084.198    1910.3297     10648000 
  503500     308.6107   -257.38553   -1983012.8    177645.64   -1805367.1   -2143724.3    67062.086    43546.488    48197.766    1905.1375     10648000 
  504000    308.04319   -299.11739   -1982624.5    177318.96   -1805305.6   -2143756.1    67376.492    43661.289    48159.053    1934.7823     10648000 
  504500    308.31382   -266.53916   -1982752.6    177474.74   -1805277.8   -2143776.4    67558.497    43764.212     47801.86    1899.2918     10648000 
  505000    308.45539   -248.22499   -1982870.6    177556.24   -1805314.3   -2143932.2    67529.401    43599.628    48018.735       1913.9     10648000 
  505500    308.27122   -232.78151   -1982800.9    177450.22   -1805350.7   -2144267.7    67349.816    43660.217    48532.214    1924.5853     10648000 
  506000    308.00734   -245.35133     -1982567    177298.32   -1805268.7   -2143915.7    67493.592    43753.127    48182.413    1919.5769     10648000 
  506500    308.19592   -301.27519     -1982647    177406.88   -1805240.2   -2143975.7    67386.385    43842.918    48174.298    1925.0254     10648000 
  507000    308.73176    -305.6627   -1983021.1    177715.32   -1805305.8     -2143796    67246.616    43516.071    48106.902    1905.2609     10648000 
  507500    308.46679   -310.10832   -1982799.6     177562.8   -1805236.8   -2144164.1    67751.788     43512.85    48171.331    1928.4902     10648000 
  508000    308.41902   -305.00105   -1982757.6     177535.3   -1805222.3   -2143853.6    67380.939    43637.323    48169.147     1908.588     10648000 
  508500    308.99276   -320.68061   -1983114.6    177865.56   -1805249.1   -2143850.8    67409.885    43462.656     47964.73    1898.8814     10648000 
  509000    308.16781   -261.04983   -1982616.8     177390.7   -1805226.2     -2143462     67444.72    43523.224    47959.284    1917.9199     10648000 
  509500    308.17244   -229.92225   -1982517.2    177393.36   -1805123.9   -2143921.9    67721.549    43529.759    48243.578    1909.8082     10648000 
  510000    308.71001   -244.03347   -1982924.5     177702.8   -1805221.7   -2143589.1    67221.838    43413.884    48111.221    1917.6248     10648000 
  510500    308.53038   -267.22139   -1982782.1     177599.4   -1805182.7   -2143726.8     67506.46    43472.231    48057.407    1908.6761     10648000 
  511000    308.44543   -302.82184     -1982766     177550.5   -1805215.5   -2143703.9    67517.598    43281.387    48227.258    1911.6322     10648000 
  511500    308.59337    -257.2977   -1982813.9    177635.66   -1805178.2   -2143629.3    67219.974    43606.879    48060.133    1928.4086     10648000 
  512000    309.09086   -246.48047   -1983130.1    177922.03   -1805208.1   -2143757.6     67199.69    43393.539    48109.358    1924.9467     10648000 
  512500     307.8018   -238.14018   -1982287.4    177180.01   -1805107.4   -2143582.1    67579.047    43549.314    48241.937    1924.4354     10648000 
  513000    308.26607   -317.79891     -1982531    177447.25   -1805083.7   -2143703.8    67429.144    43534.045     48304.51    1905.1537     10648000 
  513500    308.62753   -290.14646   -1982762.7    177655.32   -1805107.4   -2143614.1    67351.229    43448.933    48140.282    1911.0087     10648000 
  514000    308.29508   -251.00133   -1982541.8    177463.96   -1805077.8   -2143536.9    67523.059    43545.911    48008.342    1917.7757     10648000 
  514500    308.32679   -231.69202   -1982560.2    177482.21     -1805078   -2143476.2     67422.18    43431.011    48156.966     1905.804     10648000 
  515000    309.05714   -207.29149   -1982985.8    177902.62   -1805083.2   -2143547.5    67354.186    43384.096    47923.226    1900.1466     10648000 
  515500    308.63787   -235.43778   -1982701.7    177661.27   -1805040.4   -2143920.4    67510.565    43664.274    48132.256    1911.6296     10648000 
  516000    308.54188   -310.69431   -1982692.5    177606.02   -1805086.5   -2143621.4    67432.541    43513.929    48070.606     1911.842     10648000 
  516500    308.06318    -277.6756   -1982328.7    177330.47   -1804998.2   -2143777.9     67489.83     43666.38    48370.578    1922.4828     10648000 
  517000    308.10572   -285.96109   -1982374.2    177354.95   -1805019.2   -2143690.1    67620.245    43686.075    48089.544    1920.0255     10648000 
  517500    308.59929   -265.14075   -1982659.4    177639.07   -1805020.3   -2143694.2    67296.808    43701.149    48128.092    1908.7802     10648000 
  518000    309.06399   -249.91862   -1982958.6    177906.56   -1805052.1   -2143601.5    67279.331    43456.261    47985.815    1921.4121     10648000 
  518500    308.85327   -216.55128   -1982767.2    177785.27   -1804981.9   -2143629.4    67354.093    43506.546    48084.985    1916.6527     10648000 
  519000    308.64825   -301.36586   -1982710.9    177667.25   -1805043.6   -2143808.3    67388.232    43625.784    48157.258    1926.1964     10648000 
  519500    308.90927   -301.65599   -1982818.5     177817.5     -1805001     -2143947    67390.282    43548.956    48263.458    1925.7437     10648000 
  520000    308.16825   -296.09445   -1982362.8    177390.95   -1804971.8   -2143887.6    67568.084    43568.103    48463.312    1925.3456     10648000 
  520500    308.93849   -260.41643     -1982830    177834.32   -1804995.7     -2143588    67504.992    43305.465    48038.431    1909.1024     10648000 
  521000    303.91844   -222.85661   -1985883.2    174944.63   -1810938.6   -2144488.2        66274    42730.857    47708.211    1891.8557     10648000 
  521500     303.5921   -259.05428   -1985637.8    174756.78     -1810881   -2144209.4    66481.051    42859.615    47346.746     1884.246     10648000 
  522000    303.82868   -284.74165   -1985854.5    174892.96   -1810961.6   -2144329.8    66141.185      43003.7    47433.034    1897.3632     10648000 
  522500    303.87461   -238.47021   -1985870.9     174919.4   -1810951.5   -2144335.8    66278.339    42675.877    47625.482    1885.1475     10648000 
  523000    303.90832   -218.31199     -1985901     174938.8   -1810962.2   -2144359.8    66189.895    42968.186     47396.31    1904.3968     10648000 
  523500    303.77348   -273.48633   -1985736.1    174861.18   -1810874.9   -2144978.4    66544.836     43000.49    47818.431    1878.5403     10648000 
  524000    304.55948   -242.09622   -1986259.3    175313.63   -1810945.7   -2144620.4     66139.97    42724.085    47623.138    1873.8889     10648000 
  524500    303.41166    -263.1215   -1985455.7    174652.91   -1810802.8   -2144332.6    66487.511    42879.652    47618.309    1891.4463     10648000 
  525000     303.7255     -275.932   -1985680.6    174833.57     -1810847   -2144390.2    66423.548    43076.841    47310.523    1898.7562     10648000 
  525500    303.94657   -261.97302   -1985767.1    174960.82   -1810806.3   -2144624.8    66523.382    42703.914    47733.954    1896.4369     10648000 
  526000    303.84062    -278.9277   -1985781.7    174899.83   -1810881.9     -2144586    66460.133    42826.602    47633.542    1884.0388     10648000 
  526500    304.30137   -247.68628   -1985967.1    175165.05     -1810802   -2144664.2    66161.467    43179.434    47464.455    1891.7449     10648000 
  527000    303.88813   -279.32399     -1985763    174927.18   -1810835.8   -2144328.9    66437.387    42923.245    47326.245    1879.0782     10648000 
  527500    304.19112   -241.52948   -1985932.7    175101.59   -1810831.1   -2144237.9    66061.517    42880.576    47471.401    1891.6673     10648000 
  528000    304.05377   -338.14101   -1985778.7    175022.53   -1810756.2   -2144298.4    66438.679    42752.827    47447.744    1880.3937     10648000 
  528500    303.84752    -236.8988   -1985692.3     174903.8   -1810788.5   -2144570.6    66378.331    43039.336    47575.501    1885.1528     10648000 
  529000    304.21029   -321.29646   -1985849.9    175112.63   -1810737.3   -2144581.5    66335.767    42865.592    47638.653    1891.5874     10648000 
  529500    303.12933   -280.47328   -1985254.7     174490.4   -1810764.3   -2144189.1    66537.886    42837.844    47662.861     1895.806     10648000 
  530000    304.53131   -273.13497   -1986081.7    175297.41   -1810784.2   -2144561.9    66139.418    42732.372    47703.157    1905.3478     10648000 
  530500    304.03434    -240.5271   -1985690.3    175011.35   -1810678.9     -2144601    66409.544    42966.501    47648.892    1885.7307     10648000 
  531000    303.30909   -234.14179   -1985276.4    174593.87   -1810682.6   -2144468.6    66240.063    43114.554    47924.648     1912.878     10648000 
  531500    304.91932   -291.82281   -1986250.1    175520.77   -1810729.3     -2144757    66419.762    42676.098    47535.438    1875.6118     10648000 
  532000    303.72194   -250.22183     -1985444    174831.52   -1810612.5   -2144568.8    66587.325    42780.601      47866.7    1890.1703     10648000 
  532500    303.91487   -270.49196   -1985611.1    174942.57   -1810668.5   -2144641.5    66564.057    42883.191    47714.465    1868.6868     10648000 
  533000    304.25805   -287.70994   -1985811.4    175140.12   -1810671.3   -2144773.5     66464.63    42686.514    47924.613    1886.2707     10648000 
  533500    303.88243   -312.48542   -1985645.5     174923.9   -1810721.6   -2144632.6    66197.013    43037.114    47862.159    1890.8212     10648000 
  534000    303.83569   -263.15996   -1985561.8    174896.99   -1810664.8   -2144699.2    66232.433    43249.061    47757.083    1898.8776     10648000 
  534500    304.88631   -285.21224   -1986137.4    175501.76   -1810635.7   -2145042.2    66603.376    42687.908    47727.709    1885.7337     10648000 
  535000    303.59685    -275.4554   -1985367.6    174759.51   -1810608.1   -2144617.8    66367.169    43249.234    47738.521    1895.1822     10648000 
  535500    304.00297   -264.14219   -1985636.7    174993.29   -1810643.4   -2144493.9    66428.867    43015.167    47533.994    1879.1673     10648000 
  536000    303.62017    -295.9745   -1985384.3    174772.94   -1810611.3   -2144572.5    66183.249    43130.059    47972.803    1902.1158     10648000 
  536500    304.42199   -264.00442   -1985853.2    175234.49   -1810618.7   -2144804.9    66504.307    42929.982    47640.528    1876.8919     10648000 
  537000     303.8632   -269.20269   -1985569.9    174912.83   -1810657.1   -2144702.7    66252.409    43155.503    47828.081    1896.8219     10648000 
  537500    304.17275   -238.15521   -1985732.8    175091.02   -1810641.8     -2144940     66489.62    43089.565    47739.715    1888.2326     10648000 
  538000    304.41308   -243.12051     -1985862    175229.36   -1810632.7   -2144946.1    66474.942    43022.658    47683.866    1902.6213     10648000 
  538500    303.85259   -245.83422   -1985514.5    174906.72   -1810607.8   -2144806.9    66370.345    43191.226    47828.518    1902.3552     10648000 
  539000    304.58663    -253.0068   -1985927.2    175329.26     -1810598   -2144679.1    66326.847    42835.626     47708.27    1881.1035     10648000 
  539500    304.31096   -214.10026   -1985790.2    175170.57   -1810619.6   -2144555.3    66268.684    42875.818     47725.96     1894.611     10648000 
  540000    303.94554   -299.58123   -1985513.5    174960.23   -1810553.3     -2144786    66796.477    42704.962    47866.449    1904.6185     10648000 
  540500     304.5322   -217.95258     -1985882    175297.93   -1810584.1   -2144858.1    66407.736    43029.256    47649.267    1889.7999     10648000 
  541000    304.55644   -247.52848     -1985888    175311.88   -1810576.1   -2144924.3    66097.213    43169.049     47871.29    1898.7679     10648000 
  541500    304.07544   -295.19112   -1985576.2       175035   -1810541.2   -2144716.9    66562.877    43254.615    47432.393    1890.7634     10648000 
  542000     304.3051   -223.64603   -1985671.8     175167.2   -1810504.6   -2144990.6    66691.033    42981.016    47742.137    1904.6118     10648000 
  542500    303.64174   -282.96416   -1985292.8    174785.35   -1810507.4   -2144814.3    66848.069     43129.46    47650.654    1893.2904     10648000 
  543000    304.30017   -274.43874   -1985686.9    175164.36   -1810522.5   -2145084.7    66642.242    43050.773    47804.234    1900.5741     10648000 
  543500    304.64388   -287.58736   -1985891.7    175362.21   -1810529.5   -2145075.8    66747.501    42847.874    47711.055    1877.6556     10648000 
  544000    304.36095   -291.53628   -1985631.1    175199.35   -1810431.7     -2145211    67040.446      42966.7    47685.143    1887.6225     10648000 
  544500     304.2244   -271.38175   -1985572.3    175120.75   -1810451.5   -2144948.4     66644.61    43187.329    47662.366    1881.8664     10648000 
  545000    304.60492      -254.08   -1985803.3    175339.79   -1810463.5   -2144736.2    66535.692     43189.53    47328.062     1879.598     10648000 
  545500    304.32482   -288.88861   -1985652.8    175178.56   -1810474.2     -2144871    66446.192    43221.202    47653.633    1897.2379     10648000 
  546000    304.24184   -197.86793   -1985539.9    175130.79   -1810409.1   -2144778.4    66248.898    43036.505    48036.915    1916.1693     10648000 
  546500    304.30147   -231.08714   -1985631.8    175165.11   -1810466.7   -2144594.4    66398.393    43233.352    47457.924    1872.9412     10648000 
  547000    304.28922   -264.74139   -1985558.2    175158.06   -1810400.1   -2144901.6    66605.045    43214.806    47638.158    1885.3949     10648000 
  547500    304.61539   -264.42768   -1985759.8    175345.81     -1810414   -2144814.6    66428.688    43074.236    47649.435    1902.4157     10648000 
  548000    304.12798   -214.26424   -1985474.2    175065.25   -1810408.9   -2144656.2    66595.794    43219.383      47483.9    1882.9132     10648000 
  548500     304.6167    -294.3603   -1985792.5    175346.57   -1810445.9   -2144862.9    66923.927    42888.427    47386.878    1871.1744     10648000 
  549000    304.36531   -317.47901   -1985592.9    175201.86   -1810391.1   -2144914.4    66849.738    42878.016    47694.743    1899.0167     10648000 
  549500    304.37269   -240.26434   -1985642.2    175206.11   -1810436.1   -2144606.7    66636.382    42944.846    47501.984    1881.3274     10648000 
  550000    304.36499   -212.40371   -1985628.7    175201.68   -1810427.1   -2144942.4     66617.16    43015.469    47777.805    1903.2022     10648000 
  550500    303.99855   -306.57918   -1985399.4    174990.74   -1810408.6   -2144644.3    66566.143    43054.109    47735.569    1889.0946     10648000 
  551000    304.59425   -282.72524   -1985654.6    175333.65   -1810320.9   -2145075.3    66789.567    42950.302    47790.812    1890.0727     10648000 
  551500    304.53088   -273.31055   -1985654.2    175297.17     -1810357   -2144860.7    66726.222    42844.493    47744.672    1891.1976     10648000 
  552000    304.74942   -252.72377     -1985774    175422.97     -1810351   -2144916.4    66932.217    42835.345     47476.84    1898.0217     10648000 
  552500    304.59436   -261.30257   -1985677.5    175333.71   -1810343.8   -2145131.4    66584.234    43270.138    47707.488    1892.0767     10648000 
  553000    304.49899   -285.42625     -1985606    175278.81   -1810327.2   -2144865.9    66690.425    43006.614    47668.904    1893.9992     10648000 
  553500    304.77656   -250.87357   -1985796.7    175438.59   -1810358.1   -2144639.1    66306.246    42869.596    47761.546    1905.0309     10648000 
  554000    305.07241   -249.18842     -1985983    175608.89   -1810374.1     -2144614    66335.576    42821.055    47594.464    1879.9688     10648000 
  554500    304.28075   -230.18386   -1985472.4    175153.19   -1810319.2   -2144562.8    66568.056    43031.043    47589.845    1901.4073     10648000 
  555000    304.49611   -227.85516   -1985534.3    175277.15   -1810257.1   -2144880.6    66646.981    43056.543    47750.726    1892.0855     10648000 
  555500    304.62488   -291.73261   -1985625.7    175351.28   -1810274.4   -2144908.3    66662.095    43197.946    47540.317    1882.3279     10648000 
  556000    304.89951   -255.60578   -1985767.5    175509.36   -1810258.1   -2144909.4    66643.135     43065.11    47548.789    1884.8927     10648000 
  556500    304.91497   -218.63283   -1985764.7    175518.26   -1810246.4   -2145125.4    66520.296    43226.507      47725.4    1888.4966     10648000 
  557000    304.53341    -271.3503   -1985531.1    175298.62   -1810232.5   -2144995.5    66878.342    43013.279    47696.916    1875.7872     10648000 
  557500    304.97858   -237.64476   -1985816.9    175554.88     -1810262   -2144654.9    66543.331    43022.501    47411.248    1860.9157     10648000 
  558000    304.56642   -263.99722   -1985549.1    175317.63   -1810231.4     -2144966    66732.915    43109.246    47680.628    1894.1253     10648000 
  558500    304.54735   -311.44657   -1985407.9    175306.