Untitled
34 atoms
35 bonds
53 angles
96 dihedrals
0 impropers
9 atom types
35 bond types
53 angle types
96 dihedral types
-4.73 3.402 xlo xhi
-2.57 5.593 ylo yhi
-1.49 5.286 zlo zhi
0.0 0.0 0.0 xy xz yz
0 improper types

Masses

28 12.0100000
29 1.0080000
30 12.0100000
31 16.0000000
32 14.0100000
33 1.0080000
34 16.0000000
35 14.0100000
36 1.0080000
28 harmonic 4.61100000e+02 1.39840000e+00
29 harmonic 4.61100000e+02 1.39840000e+00
30 harmonic 3.45900000e+02 1.49060000e+00
31 harmonic 4.61100000e+02 1.39840000e+00
32 harmonic 3.45800000e+02 1.08600000e+00
33 harmonic 4.61100000e+02 1.39840000e+00
34 harmonic 3.45800000e+02 1.08600000e+00
35 harmonic 4.61100000e+02 1.39840000e+00
36 harmonic 3.45900000e+02 1.49060000e+00
28 harmonic 6.66000000e+01 1.20020052e+02
29 harmonic 4.82000000e+01 1.19880051e+02
30 harmonic 6.66000000e+01 1.20020052e+02
31 harmonic 4.82000000e+01 1.19880051e+02
32 harmonic 6.87000000e+01 1.22600053e+02
33 harmonic 6.92000000e+01 1.13450049e+02
34 harmonic 6.66000000e+01 1.20020052e+02
35 harmonic 6.43000000e+01 1.20330052e+02
36 harmonic 6.66000000e+01 1.20020052e+02
28 charmm 3.62500000e+00 2 180 0
29 charmm 3.62500000e+00 2 180 0
30 charmm 3.62500000e+00 2 180 0
31 charmm 3.62500000e+00 2 180 0
32 charmm 1.10000000e+00 2 180 0
33 charmm 1.10000000e+00 2 180 0
34 charmm 2.30000000e+00 2 180 0
35 charmm 1.10000000e+00 2 180 0
36 charmm 3.62500000e+00 2 180 0

Atoms

1 1 28 -0.15810000 -1.3200000 1.8100000 -0.4800000
2 1 28 0.00800000 -2.3000000 0.8600000 -0.1700000
3 1 28 -0.00600000 0.0200000 1.4800000 -0.2900000
4 1 28 -0.17660000 0.4000000 0.2200000 0.1900000
5 1 28 -0.00600000 -0.5900000 -0.7100000 0.4900000
6 1 28 -0.15810000 -1.9500000 -0.4100000 0.3100000
7 1 29 0.18400000 -3.3500000 1.1100000 -0.3100000
8 1 29 0.17800000 0.7800000 2.2200000 -0.5400000
9 1 29 0.17800000 -0.3100000 -1.6900000 0.8600000
10 1 30 0.68070000 1.8500000 -0.1500000 0.3900000
11 1 31 -0.57610000 2.1700000 -1.2500000 0.8200000
12 1 32 -0.46510000 2.7700000 0.7900000 0.1000000
13 1 28 -0.22300000 4.9000000 1.7700000 0.7600000
14 1 28 0.09960000 4.1900000 0.6900000 0.2300000
15 1 28 -0.06700000 6.2900000 1.7100000 0.8800000
16 1 28 -0.21500000 6.9800000 0.5700000 0.4600000
17 1 28 0.16860000 6.2800000 -0.5100000 -0.0900000
18 1 28 -0.21600000 4.8900000 -0.4400000 -0.2000000
19 1 29 0.13000000 4.3700000 2.6600000 1.0900000
20 1 29 0.13100000 6.8400000 2.5500000 1.3000000
21 1 29 0.13400000 8.0600000 0.5300000 0.5500000
22 1 29 0.17000000 4.3500000 -1.2800000 -0.6400000
23 1 33 0.32150000 2.4400000 1.7000000 -0.1700000
24 1 30 0.65170000 -1.6600000 3.1900000 -1.0000000
25 1 30 0.65170000 -2.9600000 -1.4700000 0.6600000
26 1 31 -0.54250000 -2.6700000 -2.5700000 1.0800000
27 1 34 -0.60360000 -4.2200000 -1.1500000 0.4800000
28 1 31 -0.54250000 -0.8200000 4.0200000 -1.2700000
29 1 34 -0.60360000 -2.9200000 3.4600000 -1.1500000
30 1 35 -0.82320000 6.9500000 -1.6200000 -0.5100000
31 1 33 0.39480000 7.9200000 -1.7200000 -0.2400000
32 1 33 0.39480000 6.4200000 -2.4500000 -0.7200000
33 1 36 0.45300000 -2.9600000 4.3800000 -1.4900000
34 1 36 0.45300000 -4.7300000 -1.9400000 0.7500000

Bonds

1 1 1 2
2 2 1 3
3 3 1 24
4 4 2 6
5 5 2 7
6 6 3 4
7 7 3 8
8 8 4 5
9 9 4 10
10 10 5 6
11 11 5 9
12 12 6 25
13 13 10 11
14 14 10 12
15 15 12 14
16 16 12 23
17 17 13 14
18 18 13 15
19 19 13 19
20 20 14 18
21 21 15 16
22 22 15 20
23 23 16 17
24 24 16 21
25 25 17 18
26 26 17 30
27 27 18 22
28 28 24 28
29 29 24 29
30 30 25 26
31 31 25 27
32 32 27 34
33 33 29 33
34 34 30 31
35 35 30 32

Angles

1 1 1 2 6
2 2 1 2 7
3 3 1 3 4
4 4 1 3 8
5 5 1 24 28
6 6 1 24 29
7 7 2 1 3
8 8 2 1 24
9 9 2 6 5
10 10 2 6 25
11 11 3 1 24
12 12 3 4 5
13 13 3 4 10
14 14 4 3 8
15 15 4 5 6
16 16 4 5 9
17 17 4 10 11
18 18 4 10 12
19 19 5 4 10
20 20 5 6 25
21 21 6 2 7
22 22 6 5 9
23 23 6 25 26
24 24 6 25 27
25 25 10 12 14
26 26 10 12 23
27 27 11 10 12
28 28 12 14 13
29 29 12 14 18
30 30 13 14 18
31 31 13 15 16
32 32 13 15 20
33 33 14 12 23
34 34 14 13 15
35 35 14 13 19
36 36 14 18 17
37 37 14 18 22
38 38 15 13 19
39 39 15 16 17
40 40 15 16 21
41 41 16 15 20
42 42 16 17 18
43 43 16 17 30
44 44 17 16 21
45 45 17 18 22
46 46 17 30 31
47 47 17 30 32
48 48 18 17 30
49 49 24 29 33
50 50 25 27 34
51 51 26 25 27
52 52 28 24 29
53 53 31 30 32

Dihedrals

1 1 1 2 6 5
2 2 1 2 6 25
3 3 1 3 4 5
4 4 1 3 4 10
5 5 1 4 3 8
6 6 1 6 2 7
7 7 1 24 29 33
8 8 1 28 24 29
9 9 2 1 3 4
10 10 2 1 3 8
11 11 2 1 24 28
12 12 2 1 24 29
13 13 2 6 5 4
14 14 2 6 5 9
15 15 2 6 25 26
16 16 2 6 25 27
17 17 3 1 2 6
18 18 3 1 2 7
19 19 3 1 2 24
20 20 3 1 24 28
21 21 3 1 24 29
22 22 3 4 5 6
23 23 3 4 5 9
24 24 3 4 10 11
25 25 3 4 10 12
26 26 4 5 6 25
27 27 4 6 5 9
28 28 4 10 12 14
29 29 4 10 12 23
30 30 4 12 10 11
31 31 5 4 3 8
32 32 5 4 10 11
33 33 5 4 10 12
34 34 5 6 2 7
35 35 5 6 25 26
36 36 5 6 25 27
37 37 6 5 4 10
38 38 6 25 27 34
39 39 6 26 25 27
40 40 7 2 6 25
41 41 8 3 4 10
42 42 9 5 4 10
43 43 9 5 6 25
44 44 10 3 4 5
45 45 10 12 14 13
46 46 10 12 14 18
47 47 10 14 12 23
48 48 11 10 12 14
49 49 11 10 12 23
50 50 11 10 12 23
51 51 12 14 13 15
52 52 12 14 13 19
53 53 12 14 18 17
54 54 12 14 18 22
55 55 13 14 12 23
56 56 13 14 18 17
57 57 13 14 18 22
58 58 13 15 16 17
59 59 13 15 16 21
60 60 13 16 15 20
61 61 13 18 14 12
62 62 14 13 15 16
63 63 14 13 15 20
64 64 14 15 13 19
65 65 14 17 18 22
66 66 14 18 17 16
67 67 14 18 17 30
68 68 15 13 14 18
69 69 15 16 17 18
70 70 15 16 17 30
71 71 15 17 16 21
72 72 16 15 13 19
73 73 16 17 18 22
74 74 16 17 30 31
75 75 16 17 30 32
76 76 16 18 17 30
77 77 17 16 15 20
78 78 17 31 30 32
79 79 18 14 12 23
80 80 18 14 13 19
81 81 18 17 16 21
82 82 18 17 30 31
83 83 18 17 30 32
84 84 19 13 15 20
85 85 20 15 16 21
86 86 21 16 17 30
87 87 22 18 17 30
88 88 24 1 2 6
89 89 24 1 2 7
90 90 24 1 3 4
91 91 24 1 3 8
92 92 25 2 6 5
93 93 26 25 27 34
94 94 26 25 27 34
95 95 28 24 29 33
96 96 28 24 29 33
