LAMMPS Description
18 atoms
17 bonds
24 angles
28 dihedrals
6 impropers
8 atom types
11 bond types
13 angle types
7 dihedral types
3 improper types
0.0 20 xlo xhi
0.0 20 ylo yhi
0.0 20 zlo zhi

Masses

1 12.01  # c
2 12.01  # c1
3 12.01  # ca
4 1.008  # ha
5 1.008  # hn
6 14.01  # n
7 14.01  # n2
8 16.00  # o

Atoms

1 1 3 -0.1581 -1.3199999928474426 1.809999942779541 -0.48000000417232513
2 1 3 -0.006 0.020000000949949026 1.4800000190734863 -0.28999999165534973
3 1 3 -0.1766 0.3999999910593033 0.2199999988079071 0.1899999938905239
4 1 3 -0.006 -0.5900000035762787 -0.7100000232458115 0.4899999871850014
5 1 3 -0.1581 -1.9499999284744263 -0.4100000113248825 0.3099999949336052
6 1 4 0.178 0.7800000160932541 2.2200000286102295 -0.5400000140070915
7 1 4 0.178 -0.3099999949336052 -1.6899999976158142 0.8600000292062759
8 1 1 0.6807 1.850000023841858 -0.14999999664723873 0.39000000804662704
9 1 8 -0.5761 2.1699999272823334 -1.25 0.820000022649765
10 1 6 -0.4651 2.7700001001358032 0.7900000363588333 0.09999999776482582
11 1 3 -0.223 4.900000095367432 1.770000010728836 0.7599999755620956
12 1 3 0.0996 4.189999997615814 0.689999982714653 0.23000000044703484
13 1 3 -0.067 6.290000081062317 1.7100000381469727 0.8799999952316284
14 1 3 0.1686 6.28000020980835 -0.5099999904632568 -0.08999999612569809
15 1 3 -0.216 4.8899999260902405 -0.4399999976158142 -0.19999999552965164
16 1 4 0.13 4.370000064373016 2.6600000262260437 1.0899999737739563
17 1 4 0.17 4.350000023841858 -1.2800000607967377 -0.6400000303983688
18 1 5 0.3215 2.4400000274181366 1.7000000178813934 -0.17000000923871994

Bonds

1 3 1 2
2 3 2 3
3 3 3 4
4 7 3 8
5 3 4 5
6 9 8 9
7 8 8 10
8 6 10 12
9 3 11 12
10 3 11 13
11 3 12 15
12 3 14 15
13 4 2 6
14 4 4 7
15 11 10 18
16 4 11 16
17 4 15 17

Angles

1 2 1 2 3
2 2 2 3 4
3 2 3 4 5
4 2 11 12 15
5 2 12 11 13
6 2 12 15 14
7 3 1 2 6
8 3 3 2 6
9 3 3 4 7
10 3 5 4 7
11 3 12 11 16
12 3 12 15 17
13 3 13 11 16
14 3 14 15 17
15 5 10 12 11
16 5 10 12 15
17 6 2 3 8
18 6 4 3 8
19 7 3 8 10
20 8 3 8 9
21 9 9 8 10
22 11 12 10 18
23 12 8 10 12
24 13 8 10 18

Dihedrals

1 1 2 3 8 9
2 1 4 3 8 9
3 1 2 3 8 10
4 1 4 3 8 10
5 2 3 8 10 12
6 2 3 8 10 18
7 2 9 8 10 12
8 4 1 2 3 4
9 4 2 3 4 5
10 4 11 12 15 14
11 4 13 11 12 15
12 4 1 2 3 8
13 4 5 4 3 8
14 4 2 3 4 7
15 4 4 3 2 6
16 4 11 12 15 17
17 4 15 12 11 16
18 4 6 2 3 8
19 4 7 4 3 8
20 4 10 12 11 13
21 4 10 12 15 14
22 4 10 12 11 16
23 4 10 12 15 17
24 5 8 10 12 11
25 5 8 10 12 15
26 5 11 12 10 18
27 5 15 12 10 18
28 7 9 8 10 18

Impropers

1 1 3 9 8 10
2 2 1 3 2 6
3 2 3 5 4 7
4 2 12 13 11 16
5 2 12 14 15 17
6 3 8 12 10 18
