Untitled
14 atoms
14 bonds
20 angles
34 dihedrals
0 impropers
9 atom types
35 bond types
53 angle types
96 dihedral types
0 improper types
-9.26 5.876 xlo xhi
-0.24 14.385 ylo yhi
0.0 12.722 zlo zhi
0.0 0.0 0.0 xy xz yz

Masses

1 12.0100000
2 1.0080000
3 12.0100000
4 16.0000000
5 14.0100000
6 1.0080000
7 16.0000000
8 14.0100000
9 1.0080000

Atoms

1 1 1 -0.19950000 -7.2000000 2.9400000 0.0000000
2 1 1 -0.07600000 -5.9900000 3.6400000 0.0000000
3 1 1 -0.19950000 -4.7800000 2.9400000 0.0000000
4 1 1 0.01500000 -7.2000000 1.5400000 0.0000000
5 1 1 0.00500000 -5.9900000 0.8500000 0.0000000
6 1 1 0.01500000 -4.7800000 1.5500000 0.0000000
7 1 2 0.13800000 -8.1300000 3.4900000 0.0000000
8 1 2 0.13600000 -5.9900000 4.7200000 0.0000000
9 1 2 0.13800000 -3.8400000 3.4900000 0.0000000
10 1 5 -0.21550000 -3.5900000 0.8700000 0.0000000
11 1 5 -0.21550000 -8.3800000 0.8600000 0.0000000
12 1 2 0.17200000 -5.9900000 -0.2400000 0.0000000
13 1 6 0.14300000 -9.2600000 1.3700000 0.0000000
14 1 6 0.14300000 -2.7100000 1.3700000 0.0000000

Bonds

1 1 1 2
2 1 1 4
3 3 1 7
4 1 2 3
5 3 2 8
6 1 3 6
7 3 3 9
8 1 4 5
9 6 4 11
10 1 5 6
11 3 5 12
12 6 6 10
13 7 10 14
14 7 11 13

Angles

1 1 1 2 3
2 2 1 2 8
3 1 1 4 5
4 9 1 4 11
5 1 2 1 4
6 2 2 1 7
7 1 2 3 6
8 2 2 3 9
9 2 3 2 8
10 1 3 6 5
11 9 3 6 10
12 2 4 1 7
13 1 4 5 6
14 2 4 5 12
15 10 4 11 13
16 9 5 4 11
17 9 5 6 10
18 2 6 3 9
19 2 6 5 12
20 10 6 10 14

Dihedrals

1 1 1 2 3 6
2 11 1 2 3 9
3 2 1 3 2 8
4 1 1 4 5 6
5 11 1 4 5 12
6 37 1 4 11 13
7 25 1 5 4 11
8 1 2 1 4 5
9 14 2 1 4 11
10 1 2 3 6 5
11 14 2 3 6 10
12 2 2 6 3 9
13 25 3 5 6 10
14 1 3 6 5 4
15 11 3 6 5 12
16 37 3 6 10 14
17 1 4 1 2 3
18 11 4 1 2 8
19 14 4 5 6 10
20 2 4 6 5 12
21 37 5 4 11 13
22 11 5 6 3 9
23 37 5 6 10 14
24 11 6 3 2 8
25 14 6 5 4 11
26 11 7 1 2 3
27 19 7 1 2 8
28 2 7 1 4 2
29 11 7 1 4 5
30 16 7 1 4 11
31 19 8 2 3 9
32 16 9 3 6 10
33 16 10 6 5 12
34 16 11 4 5 12
