LAMMPS data file via write_data, version 29 Sep 2021, timestep = 6766

29 atoms
7 atom types
29 bonds
9 bond types
41 angles
12 angle types
58 dihedrals
6 dihedral types
7 impropers
3 improper types

5.366169101944547 14.63383089805545 xlo xhi
5.366169101944547 14.63383089805545 ylo yhi
5.366169101944547 14.63383089805545 zlo zhi

Masses

1 12.01
2 12.01
3 1.008
4 1.008
5 14.01
6 14.01
7 16

Atoms # full

12 1 4 0.3883 6.00399790371502 9.008733242762275 12.01756673374151 0 0 -1
1 1 6 -0.8202 6.525089202972053 8.823009536274117 12.864223716068684 0 0 -1
3 1 2 0.1716 7.868992771637336 8.892258065588177 12.746857159271752 0 0 -1
23 2 3 0.181 9.088303037953487 6.060990447792018 5.476302195890375 -1 0 0
11 1 3 0.13 8.176233890184363 8.124839295975663 5.439901032196537 0 0 0
7 1 2 -0.253 8.649657649467896 8.457744520256211 13.794916426920842 0 0 -1
19 2 2 0.01 9.491099738317445 14.398759033090329 5.894927168162166 -1 -1 0
28 2 7 -0.471767 7.318484336478023 13.911215689162674 8.609814131976773 -1 -1 0
24 2 1 0.587967 7.50070744713247 14.244769748275193 7.450383877886651 -1 -1 0
18 2 2 -0.190267 8.705538129882255 13.625915566741593 6.779078754848036 -1 -1 0
21 2 3 0.181 8.735377257214619 11.82776876741752 8.032480088585386 -1 -1 0
15 2 2 0.01 9.272048063538897 12.442127304519236 7.306098973145831 -1 -1 0
2 1 2 -0.23 8.456675332437005 9.346426824995008 11.577913827149764 0 0 -1
4 1 2 -0.06 9.8365915105618 9.41194884920549 11.469136109477187 0 0 -1
8 1 3 0.13 7.841896714066313 9.651764233296912 10.740514952824578 0 0 -1
9 1 3 0.127 10.30841695829793 9.776305801478713 10.56075252737487 0 0 -1
5 1 2 -0.23 10.609396809864819 9.006303655154348 12.546129725421489 0 0 -1
10 1 3 0.13 11.689979485191202 9.070010555348208 12.480450930330012 0 0 -1
6 1 2 0.1716 10.017863505841044 8.545367341617837 13.70587126867673 0 0 -1
13 1 6 -0.8202 10.764317719267229 8.260446405894584 5.527023802516456 0 0 0
14 1 4 0.3883 11.689150971276852 8.690613364672794 5.5464163234006385 0 0 0
20 2 2 -0.190267 10.78723134646833 14.007843838559154 5.515456954751554 -1 -1 0
25 2 1 0.587967 11.520612745184913 5.585767114384183 13.783670376887759 -1 0 -1
29 2 7 -0.471767 12.639526432285251 14.579437969443525 13.398061837279862 -1 -1 -1
22 2 3 0.181 12.265056212113883 12.4197910933819 5.6230789652691575 -1 -1 0
17 2 2 0.01 11.294058193000776 12.78436923381204 5.968717528409094 -1 -1 0
26 2 1 0.587967 11.027460560493429 10.673122236530176 7.197277949777963 -1 -1 0
27 2 7 -0.471767 12.222461861588679 10.473354283643879 7.3338775230963025 -1 -1 0
16 2 2 -0.190267 10.495002688927757 11.993718957037903 6.800706407380261 -1 -1 0

Velocities

12 -0.0008457778052670716 0.018806187327263073 -0.007554287559409004
1 -0.0010508135662680856 0.007504166168975793 -0.00615437748248973
3 0.0015121598243268135 0.006917179527902762 -0.005387357703917086
23 0.0006191691137529377 0.004800587188878286 0.001873502509813773
11 -0.0042577386397847534 -0.007201982292539508 -0.005711434866137883
7 -0.0007787911496882582 -0.0045935711057047595 -0.004754644287292762
19 -0.005642323976762016 -9.328925362307364e-05 0.00037790780991525403
28 -0.004023890977199156 -0.008920538273431606 0.0022414342503496434
24 -0.005796334343522742 0.0013890877780603406 0.0056327615639373925
18 -0.008034048596865847 -0.0037169750016570065 0.0015223804047267465
21 -0.0008206297240277965 -0.001546404012215837 0.012763025475920274
15 -0.002985921014456627 0.00010124186558503175 0.009269074186759858
2 0.005156116580379482 0.011826680568017212 -0.00648948405857585
4 0.008728148671419429 0.010869852742921496 -0.005183098334146365
8 0.004734496529881528 0.017319938675904405 -0.0067167453659204655
9 0.01203632240731416 0.017285891504793493 -0.003371230389304813
5 0.006481205742645937 0.003259670137492986 -0.0019212369283623115
10 0.008653739944016326 0.004606598418395038 0.0023578521951120282
6 0.0024571398205964503 -0.007362848121500129 -0.003729702109402807
13 0.0017353048096178767 -0.006271043082627495 -5.063754939567505e-05
14 -0.003133332989812872 0.010461751651083581 0.00873844414258209
20 -0.005333365307969139 -0.005091290596883045 -0.0009659898596369275
25 -0.002180497230473073 -0.010047954690593454 -0.0025470399595861446
29 0.0022540724502206452 -0.0010814552391015273 5.9293964782517185e-05
22 -0.0053120682217357145 -0.009877781034316703 -0.008118249524847854
17 -0.002498381418433458 -0.003364850357255685 -0.0013404877301433215
26 0.003294432048333814 0.0028637214751445574 0.00688547579616967
27 0.004917066590939866 0.0007372638690883801 0.0045857250675792926
16 -0.0003506691584369258 0.0033603803467240063 0.007177156816764249

Bonds

1 4 1 3
2 9 1 12
3 1 3 7
4 2 7 11
5 1 19 20
6 2 19 23
7 7 24 28
8 1 18 19
9 5 18 24
10 1 15 16
11 1 15 18
12 2 15 21
13 1 2 3
14 1 2 4
15 2 2 8
16 1 4 5
17 2 4 9
18 1 5 6
19 2 5 10
20 1 6 7
21 4 6 13
22 9 13 14
23 5 20 25
24 7 25 29
25 1 17 20
26 2 17 22
27 7 26 27
28 1 16 17
29 5 16 26

Angles

1 12 3 1 12
2 1 2 3 7
3 4 1 3 2
4 4 1 3 7
5 1 3 7 6
6 2 3 7 11
7 2 6 7 11
8 1 18 19 20
9 2 18 19 23
10 2 20 19 23
11 7 18 24 28
12 1 15 18 19
13 5 15 18 24
14 5 19 18 24
15 1 16 15 18
16 2 16 15 21
17 2 18 15 21
18 1 3 2 4
19 2 3 2 8
20 2 4 2 8
21 1 2 4 5
22 2 2 4 9
23 2 5 4 9
24 1 4 5 6
25 2 4 5 10
26 2 6 5 10
27 1 5 6 7
28 4 5 6 13
29 4 7 6 13
30 12 6 13 14
31 1 17 20 19
32 5 17 20 25
33 5 19 20 25
34 7 20 25 29
35 1 16 17 20
36 2 16 17 22
37 2 20 17 22
38 7 16 26 27
39 1 15 16 17
40 5 15 16 26
41 5 17 16 26

Dihedrals

1 3 1 3 2 4
2 3 1 3 7 6
3 3 1 3 2 8
4 3 1 3 7 11
5 3 2 3 7 6
6 3 2 3 7 11
7 3 7 3 2 8
8 5 2 3 1 12
9 5 7 3 1 12
10 3 3 7 6 13
11 3 11 7 6 13
12 3 3 7 6 5
13 3 18 19 20 25
14 3 20 19 18 24
15 3 23 19 18 24
16 3 23 19 20 25
17 1 15 18 24 28
18 1 19 18 24 28
19 3 15 18 19 20
20 3 15 18 19 23
21 3 19 18 15 21
22 3 16 15 18 19
23 3 16 15 18 24
24 3 18 15 16 26
25 3 21 15 16 26
26 3 21 15 18 24
27 3 3 2 4 5
28 3 4 2 3 7
29 3 3 2 4 9
30 3 8 2 4 9
31 3 2 4 5 6
32 3 2 4 5 10
33 3 5 4 2 8
34 3 9 4 5 10
35 3 4 5 6 13
36 3 10 5 6 13
37 3 4 5 6 7
38 3 6 5 4 9
39 3 5 6 7 11
40 3 7 6 5 10
41 5 5 6 13 14
42 5 7 6 13 14
43 1 17 20 25 29
44 1 19 20 25 29
45 3 17 20 19 18
46 3 17 20 19 23
47 3 19 20 17 22
48 3 16 17 20 19
49 3 16 17 20 25
50 3 20 17 16 26
51 3 22 17 16 26
52 3 22 17 20 25
53 1 15 16 26 27
54 1 17 16 26 27
55 3 15 16 17 20
56 3 17 16 15 18
57 3 15 16 17 22
58 3 17 16 15 21

Impropers

1 2 16 18 15 21
2 2 3 4 2 8
3 2 2 5 4 9
4 2 3 6 7 11
5 2 4 6 5 10
6 2 16 20 17 22
7 2 18 20 19 23
