LAMMPS data file via write_data, version 29 Sep 2021, timestep = 4766

29 atoms
7 atom types
29 bonds
9 bond types
41 angles
12 angle types
58 dihedrals
6 dihedral types
7 impropers
3 improper types

0 20 xlo xhi
0 20 ylo yhi
0 20 zlo zhi

Masses

1 12.01
2 12.01
3 1.008
4 1.008
5 14.01
6 14.01
7 16

Atoms # full

2 1 2 -0.23 7.12393238535013 2.3975623654808427 1.1721098676615709 0 0 0
4 1 2 -0.06 7.378215576942487 1.292818570956089 1.9849714344942284 0 0 0
8 1 3 0.13 7.178150936509084 3.400416868968169 1.5830697101160203 0 0 0
5 1 2 -0.23 7.330729963857573 0.00836302498825285 1.4430196517749319 0 0 0
9 1 3 0.127 7.624620047799712 1.4329360161486553 3.0345304807408566 0 0 0
20 2 2 -0.190267 12.129376785408741 1.42612562336603 0.4671385711136888 -1 0 0
22 2 3 0.181 11.784699701514345 3.505412012022167 19.979314686017187 -1 0 -1
25 2 1 0.587967 13.311384190759417 1.718165747575983 1.330024937394001 -1 0 0
19 2 2 0.01 11.683685867561262 0.1127773117577708 0.2976957891195476 -1 0 0
29 2 7 -0.471767 13.94882962745857 0.8660901657950223 1.914459778365543 -1 0 0
10 1 3 0.13 7.549545325782853 19.14646435076149 2.0651817551084752 0 -1 0
6 1 2 0.1716 7.0142789673583525 19.834387915983292 0.10073696076565762 0 -1 0
14 1 4 0.3883 6.964010964170685 17.830576441473948 0.22285049217605762 0 -1 0
23 2 3 0.181 12.198857603780224 19.289873870137782 0.7982432885694477 -1 -1 0
12 1 4 0.3883 6.476151240686182 4.1682958299751105 19.504330733732445 0 0 -1
1 1 6 -0.8202 6.619501602691873 3.288505571462732 19.023933779955282 0 0 -1
11 1 3 0.13 6.4891606654336815 0.7937621892065431 18.252687810834985 0 0 -1
3 1 2 0.1716 6.807539566020771 2.2125990209289053 19.831302021706716 0 0 -1
26 2 1 0.587967 9.598483891600843 3.339370151182725 18.39392299068999 -1 0 -1
17 2 2 0.01 11.453995632822846 2.4749183399021 19.840562313803016 -1 0 -1
27 2 7 -0.471767 10.053587923904553 4.4675232390433735 18.347698886701977 -1 0 -1
15 2 2 0.01 9.905645049067656 0.899628439082813 18.86335840009446 -1 0 -1
16 2 2 -0.190267 10.340607278396803 2.213335132920166 19.040057875074027 -1 0 -1
21 2 3 0.181 9.033897645478145 0.6912836847766417 18.241598843204894 -1 0 -1
7 1 2 -0.253 6.738590622857562 0.9332854586520712 19.29902509813973 0 0 -1
18 2 2 -0.190267 10.570100213835994 19.849969827458178 19.49736623549524 -1 -1 -1
24 2 1 0.587967 10.062709381017122 18.453063251218587 19.339119806818783 -1 -1 -1
13 1 6 -0.8202 7.036043296617155 18.589970800952766 19.556023884299155 0 -1 -1
28 2 7 -0.471767 10.673668803486699 17.482519311581264 19.74566392457174 -1 -1 -1

Velocities

2 0 0 0
4 0 0 0
8 0 0 0
5 0 0 0
9 0 0 0
20 0 0 0
22 0 0 0
25 0 0 0
19 0 0 0
29 0 0 0
10 0 0 0
6 0 0 0
14 0 0 0
23 0 0 0
12 0 0 0
1 0 0 0
11 0 0 0
3 0 0 0
26 0 0 0
17 0 0 0
27 0 0 0
15 0 0 0
16 0 0 0
21 0 0 0
7 0 0 0
18 0 0 0
24 0 0 0
13 0 0 0
28 0 0 0

Bonds

1 1 2 3
2 1 2 4
3 2 2 8
4 1 4 5
5 2 4 9
6 1 5 6
7 2 5 10
8 5 20 25
9 7 25 29
10 1 19 20
11 2 19 23
12 1 6 7
13 4 6 13
14 4 1 3
15 9 1 12
16 1 3 7
17 7 26 27
18 1 17 20
19 2 17 22
20 1 15 16
21 1 15 18
22 2 15 21
23 1 16 17
24 5 16 26
25 2 7 11
26 1 18 19
27 5 18 24
28 7 24 28
29 9 13 14

Angles

1 1 3 2 4
2 2 3 2 8
3 2 4 2 8
4 1 2 4 5
5 2 2 4 9
6 2 5 4 9
7 1 4 5 6
8 2 4 5 10
9 2 6 5 10
10 1 17 20 19
11 5 17 20 25
12 5 19 20 25
13 7 20 25 29
14 1 18 19 20
15 2 18 19 23
16 2 20 19 23
17 1 5 6 7
18 4 5 6 13
19 4 7 6 13
20 12 3 1 12
21 1 2 3 7
22 4 1 3 2
23 4 1 3 7
24 7 16 26 27
25 1 16 17 20
26 2 16 17 22
27 2 20 17 22
28 1 16 15 18
29 2 16 15 21
30 2 18 15 21
31 1 15 16 17
32 5 15 16 26
33 5 17 16 26
34 1 3 7 6
35 2 3 7 11
36 2 6 7 11
37 1 15 18 19
38 5 15 18 24
39 5 19 18 24
40 7 18 24 28
41 12 6 13 14

Dihedrals

1 3 3 2 4 5
2 3 4 2 3 7
3 3 3 2 4 9
4 3 8 2 4 9
5 3 2 4 5 6
6 3 2 4 5 10
7 3 5 4 2 8
8 3 9 4 5 10
9 3 4 5 6 13
10 3 10 5 6 13
11 3 4 5 6 7
12 3 6 5 4 9
13 1 17 20 25 29
14 1 19 20 25 29
15 3 17 20 19 18
16 3 17 20 19 23
17 3 19 20 17 22
18 3 18 19 20 25
19 3 20 19 18 24
20 3 23 19 18 24
21 3 23 19 20 25
22 3 5 6 7 11
23 3 7 6 5 10
24 5 5 6 13 14
25 5 7 6 13 14
26 3 1 3 2 4
27 3 1 3 7 6
28 3 1 3 2 8
29 3 1 3 7 11
30 3 2 3 7 6
31 3 2 3 7 11
32 3 7 3 2 8
33 5 2 3 1 12
34 5 7 3 1 12
35 3 16 17 20 19
36 3 16 17 20 25
37 3 20 17 16 26
38 3 22 17 16 26
39 3 22 17 20 25
40 3 16 15 18 19
41 3 16 15 18 24
42 3 18 15 16 26
43 3 21 15 16 26
44 3 21 15 18 24
45 1 15 16 26 27
46 1 17 16 26 27
47 3 15 16 17 20
48 3 17 16 15 18
49 3 15 16 17 22
50 3 17 16 15 21
51 3 3 7 6 13
52 3 11 7 6 13
53 3 3 7 6 5
54 1 15 18 24 28
55 1 19 18 24 28
56 3 15 18 19 20
57 3 15 18 19 23
58 3 19 18 15 21

Impropers

1 2 3 4 2 8
2 2 2 5 4 9
3 2 16 20 17 22
4 2 18 20 19 23
5 2 3 6 7 11
6 2 4 6 5 10
7 2 16 18 15 21
