LAMMPS data file via write_data, version 29 Sep 2021, timestep = 100624

29 atoms
7 atom types
30 bonds
9 bond types
45 angles
12 angle types
66 dihedrals
6 dihedral types
9 impropers
3 improper types

0 20 xlo xhi
0 20 ylo yhi
0 20 zlo zhi

Masses

1 12.01
2 12.01
3 1.008
4 1.008
5 14.01
6 14.01
7 16

Atoms # full

28 1 7 -0.5761 7.488351914395444 11.252417554751334 14.628582980989293 -1 -3 -1
29 1 7 -0.471767 12.110743290056174 16.22386198954593 12.28788727662632 -1 -3 -1
22 1 3 0.181 11.205674294392544 14.137904775860369 10.784070425602316 -1 -3 -1
17 1 2 0.01 10.578360151710527 13.722540699815752 11.523611342170305 -1 -3 -1
20 1 2 -0.1581 10.497341384212195 14.46356590992213 12.706528484451884 -1 -3 -1
16 1 2 -0.1581 9.951003584224898 12.46755980391917 11.410684174269868 -1 -3 -1
26 1 1 0.587967 10.101183254151891 11.617277739204575 10.189922728648591 -1 -3 -1
27 1 7 -0.471767 10.756596512158774 12.007143248465383 9.207153841522354 -1 -3 -1
18 1 2 -0.1766 8.835976497287822 12.918133074342023 13.525325695132162 -1 -3 -1
21 1 3 0.178 8.480770255356639 11.225524601478343 12.261596601240418 -1 -3 -1
15 1 2 -0.006 9.044554946505174 12.115596422158601 12.415582432830321 -1 -3 -1
12 1 4 0.3215 6.71036322258764 12.877081465250997 16.249532044126422 0 -3 -1
24 1 1 0.6807 7.8641240614732055 12.38966212244857 14.591628825197507 -1 -3 -1
1 1 5 -0.4651 7.33856477756216 13.209858187482562 15.521429751101536 0 -3 -1
25 1 1 0.587967 11.310367924252244 15.73489527995938 13.05868950417849 -1 -3 -1
19 1 2 -0.006 9.650244388123966 14.052839522601941 13.713102655754923 -1 -3 -1
10 1 3 0.13 6.987884034469577 18.531767135893464 14.84567591315177 0 -3 -1
5 1 2 -0.23 7.093775894505533 17.421546139792312 15.02195736104706 0 -3 -1
14 1 4 0.3883 8.957218004389134 17.325907222812777 17.67425976422188 0 -3 -1
13 1 6 -0.8202 8.536305192421251 17.672269780601358 16.81776331347181 0 -3 -1
6 1 2 -0.067 7.853219147970584 16.861220671891665 16.02695501729553 0 -3 -1
11 1 3 0.13 8.556487022353187 15.0501867123926 17.00547295956392 0 -3 -1
9 1 3 0.127 5.745898546547521 16.969459342603745 13.382710954136606 0 -3 -1
4 1 2 0.1686 6.3798853884958735 16.590123371885312 14.170611970683435 0 -3 -1
8 1 3 0.17 5.843816807166961 14.470407004598528 13.75829043689742 0 -3 -1
2 1 2 -0.216 6.419903136777134 15.180036829828634 14.368644510198695 0 -3 -1
7 1 2 -0.223 7.930826541021101 15.48724945026656 16.23378642765449 0 -3 -1
3 1 2 0.0996 7.2205461207661035 14.633416400917637 15.379545453475053 0 -3 -1
23 1 3 0.178 9.590134023237312 14.592257129939831 14.635460759837882 -1 -3 -1

Velocities

28 0.0050957634340315005 0.0019988676692103305 0.0029523335992698617
29 -0.003925590837194047 0.003220948601715711 -0.0010373201127458172
22 0.026062752003966884 0.00116821447603934 -0.02707689767589822
17 -0.0010362836785462095 0.00010611294618545802 -0.002888898325100873
20 -0.0007027211627429283 -0.008067484600653253 0.0006880107374762496
16 0.0044668671105980075 -0.0025867624930817233 -0.001296331198774564
26 0.008031297845558087 -0.003696051354504454 0.00395216751341898
27 -0.0004424436605737496 -0.005138070904383892 0.0029957808541830402
18 0.005834380809732251 0.0008881395894607628 0.0024470349017790337
21 0.002506524440411916 0.0351341352346862 0.0159468351412705
15 0.000321416040623415 0.0008707290628434433 -0.00038579102194134237
12 0.011021468033150395 0.004270007264032492 0.004418064565142273
24 -0.005106076986934685 -0.00424278137306331 0.0042333967773952414
1 0.0051325023292358146 0.0039126607553753015 -0.005628046699860508
25 -0.004292908003192368 -0.006151406641698812 -0.011068045542908867
19 -0.0009237763926128101 0.0013247441025523111 -0.0009929854565956665
10 0.015555155194888736 0.03299575390824083 -0.00494659914177294
5 -0.002957383996698675 0.0011506466815718887 -0.0036903160199761266
14 0.002043894255245185 0.0013547795750652803 0.011095378011964394
13 -0.008709027641816086 0.0032248822765108274 -0.0033200539411939738
6 0.0003426842808400672 0.002961151291775416 -0.007581196040037916
11 -0.0017732180403373951 0.00014563525799439795 0.008751338528887374
9 0.003322765170438649 -0.00011338349402419427 -0.028458208298834105
4 -0.0014224620853691753 0.002486548178765618 0.0026156659665402316
8 0.014151059625825779 -0.02879924997899649 0.009332140924040852
2 -0.0007470972609713797 -0.0018375046933675923 0.001026082553462943
7 0.004251154838468474 -0.003913896691994865 0.009137215774099665
3 -0.009466397695273843 -0.001937911244461369 0.008286383769817711
23 0.003984136301515273 -0.01754717113185107 -0.015101051058418058

Bonds

1 1 17 20
2 2 17 22
3 5 20 25
4 1 16 17
5 5 16 26
6 7 26 27
7 1 18 19
8 5 18 24
9 1 15 16
10 1 15 18
11 2 15 21
12 7 24 28
13 6 24 1
14 3 1 3
15 8 1 12
16 7 25 29
17 1 19 20
18 2 19 23
19 1 5 6
20 2 5 10
21 9 13 14
22 1 6 7
23 4 6 13
24 1 4 5
25 2 4 9
26 1 2 3
27 1 2 4
28 2 2 8
29 2 7 11
30 1 3 7

Angles

1 1 16 17 20
2 2 16 17 22
3 2 20 17 22
4 1 17 20 19
5 5 17 20 25
6 5 19 20 25
7 1 15 16 17
8 5 15 16 26
9 5 17 16 26
10 7 16 26 27
11 1 15 18 19
12 5 19 18 24
13 5 15 18 24
14 1 16 15 18
15 2 16 15 21
16 2 18 15 21
17 7 18 24 28
18 8 28 24 1
19 6 18 24 1
20 9 3 1 12
21 10 24 1 3
22 11 24 1 12
23 7 20 25 29
24 1 18 19 20
25 2 18 19 23
26 2 20 19 23
27 1 4 5 6
28 2 4 5 10
29 2 6 5 10
30 12 6 13 14
31 1 5 6 7
32 4 5 6 13
33 4 7 6 13
34 1 2 4 5
35 2 2 4 9
36 2 5 4 9
37 1 3 2 4
38 2 3 2 8
39 2 4 2 8
40 1 3 7 6
41 2 3 7 11
42 2 6 7 11
43 1 2 3 7
44 3 1 3 7
45 3 1 3 2

Dihedrals

1 3 16 17 20 19
2 3 16 17 20 25
3 3 20 17 16 26
4 3 22 17 16 26
5 3 22 17 20 25
6 1 17 20 25 29
7 1 19 20 25 29
8 3 17 20 19 18
9 3 17 20 19 23
10 3 19 20 17 22
11 1 15 16 26 27
12 1 17 16 26 27
13 3 15 16 17 20
14 3 17 16 15 18
15 3 15 16 17 22
16 3 17 16 15 21
17 3 15 18 19 20
18 3 15 18 19 23
19 3 19 18 15 21
20 1 19 18 24 28
21 1 15 18 24 28
22 1 19 18 24 1
23 1 15 18 24 1
24 3 16 15 18 19
25 3 18 15 16 26
26 3 21 15 16 26
27 3 16 15 18 24
28 3 21 15 18 24
29 2 18 24 1 3
30 2 28 24 1 3
31 6 28 24 1 12
32 2 18 24 1 12
33 4 24 1 3 7
34 4 24 1 3 2
35 3 18 19 20 25
36 3 23 19 20 25
37 3 20 19 18 24
38 3 23 19 18 24
39 3 4 5 6 13
40 3 10 5 6 13
41 3 4 5 6 7
42 3 6 5 4 9
43 3 5 6 7 11
44 3 7 6 5 10
45 5 5 6 13 14
46 5 7 6 13 14
47 3 2 4 5 6
48 3 2 4 5 10
49 3 5 4 2 8
50 3 9 4 5 10
51 3 3 2 4 5
52 3 4 2 3 7
53 3 3 2 4 9
54 3 8 2 4 9
55 3 3 7 6 13
56 3 11 7 6 13
57 3 3 7 6 5
58 3 2 3 7 6
59 3 2 3 7 11
60 3 7 3 2 8
61 3 1 3 7 6
62 3 1 3 2 4
63 3 1 3 7 11
64 3 1 3 2 8
65 4 7 3 1 12
66 4 2 3 1 12

Impropers

1 1 18 28 24 1
2 2 16 20 17 22
3 2 18 20 19 23
4 2 16 18 15 21
5 2 2 5 4 9
6 2 3 6 7 11
7 2 4 6 5 10
8 2 3 4 2 8
9 3 24 3 1 12

bond_react_props_internal # i_limit_tags i_react_tags

28 0 0
29 0 0
22 0 0
17 0 0
20 0 0
16 0 0
26 0 0
27 0 0
18 0 0
21 0 0
15 0 0
12 0 0
24 0 0
1 0 0
25 0 0
19 0 0
10 0 0
5 0 0
14 0 0
13 0 0
6 0 0
11 0 0
9 0 0
4 0 0
8 0 0
2 0 0
7 0 0
3 0 0
23 0 0

bond_react_stabilization_internal # i_statted_tags

28 1
29 1
22 1
17 1
20 1
16 1
26 1
27 1
18 1
21 1
15 1
12 1
24 1
1 1
25 1
19 1
10 1
5 1
14 1
13 1
6 1
11 1
9 1
4 1
8 1
2 1
7 1
3 1
23 1
