LAMMPS data file via write_data, version 29 Sep 2021, timestep = 107197

29 atoms
7 atom types
31 bonds
9 bond types
49 angles
12 angle types
74 dihedrals
6 dihedral types
11 impropers
3 improper types

5.667693411777364 14.332306588222387 xlo xhi
5.667693411777364 14.332306588222387 ylo yhi
5.667693411777364 14.332306588222387 zlo zhi

Masses

1 12.01
2 12.01
3 1.008
4 1.008
5 14.01
6 14.01
7 16

Atoms # full

12 1 4 0.3215 8.153894775086936 6.175154781679767 10.784117432392822 17 6 7
1 1 5 -0.4651 7.2811490358077195 6.250552507385257 10.374172430913774 17 6 7
3 1 2 0.0996 6.5810711202687076 13.68506771648381 10.301039779173703 17 5 7
23 1 3 0.178 6.655608585000627 9.60450345563238 8.481903023576473 16 5 7
11 1 3 0.13 6.824376039219816 13.579389305369752 8.156932275536473 17 5 7
7 1 2 -0.223 6.317411507383542 13.167457811401299 9.00118714317169 17 5 7
19 1 2 -0.006 5.767499412655529 9.042020262188679 8.489512646370692 16 5 7
28 1 7 -0.5761 7.937565463424327 8.237989158971043 9.915161375070841 16 5 7
24 1 1 0.6807 7.009123657539875 7.463380432044228 9.856238177114163 16 5 7
18 1 2 -0.1766 5.744390212097889 7.837798824688139 9.202289721603625 16 5 7
21 1 3 0.178 13.162672885692455 6.154198286897517 9.802265524373208 15 5 7
15 1 2 -0.006 13.217085319369541 7.000053516790558 9.171445928333405 15 5 7
2 1 2 -0.216 5.985889222021127 13.043628530834912 11.420824877985936 17 5 7
4 1 2 0.1686 13.655521593895658 12.112990165905863 11.292360724101819 16 5 7
8 1 3 0.17 6.215892330647612 13.420448113968146 12.398478481106027 17 5 7
9 1 3 0.127 13.044814350582122 11.75966827964493 12.11815478700123 16 5 7
5 1 2 -0.216 13.355421911714908 11.650145623257748 9.976476390330529 16 5 7
10 1 3 0.17 12.603213884433195 10.869569103780885 9.874310861853619 16 5 7
6 1 2 -0.067 14.006192694426021 12.17815658896571 8.859265655316904 16 5 7
13 1 5 -0.4651 13.725599069914306 11.779110144630447 7.500601033338751 16 5 7
14 1 4 0.3215 13.652871511169746 12.559572470294334 6.842836079664553 16 5 7
20 1 2 -0.1581 13.297629925466182 9.43224979453687 7.781091250934243 15 5 7
25 1 1 0.6807 13.254213603659592 10.623578662388168 6.981527616431272 15 5 7
29 1 7 -0.5761 12.721913815645337 10.75077974889859 5.907043897673889 15 5 7
22 1 3 0.178 11.243985275186832 8.88260273949303 7.262990686968751 15 5 7
17 1 2 -0.006 12.128815449406467 8.59669576231892 7.767769043850793 15 5 7
26 1 1 0.587967 10.859552209019547 6.591453596037021 8.476048006436276 15 5 7
27 1 7 -0.471767 10.713188562728767 14.213388470396934 9.018792095767163 15 4 7
16 1 2 -0.1581 12.073633608698135 7.421715209887992 8.473863820888262 15 5 7

Velocities

12 -0.0010203658906744633 -0.0034717369337068536 -0.0060843405696140475
1 -0.0023389098022545416 -0.001190511012171775 0.0024012195118177475
3 -0.007906821951058886 -0.005728779648322577 0.004292114317725774
23 -0.009721201826170261 0.0012885145720165588 -0.006784358410790311
11 0.010285824171080274 -0.004070139204277074 0.023014367774877822
7 0.0045100983365079644 -0.0029834474512978604 -0.000791245939787767
19 -0.0025224461232741984 -0.006786965726337806 -0.00031323519637833637
28 0.005973400983142087 0.0003039955546804773 0.003590798400214886
24 0.0016311215441395341 -0.0017403065200420722 -0.005441710104724741
18 0.0022016818989429787 0.00664287903813178 -0.004534457710730573
21 0.021873893972427685 -0.002801950067090936 0.008147236889601787
15 -0.005367262347165592 0.00029192648780316063 -0.006489974845858971
2 0.0030653792435041734 -0.0004903135048843934 -0.006217685188349989
4 0.007067266433207948 -0.00359730889450472 0.008325050297643065
8 0.009551902421256522 0.005858650280683244 0.00849994815712749
9 -0.0043345712007289506 -0.02842210986362126 0.011778471167278638
5 0.00482596550334544 0.0030200308731786344 -0.00016419603791196252
10 0.0065336182005232375 -0.005919473963029393 0.010261550688376676
6 -0.0007544170527246811 0.005812752745551556 0.00010211257674810801
13 0.0034270565331754564 0.0034796816028651663 -0.0023249736555323334
14 0.022013163481916148 -0.009235089851060804 -0.006819946594643999
20 -0.0015636435923342365 0.0019459930617284273 0.015445266736737184
25 0.0049571495422970745 0.003983335367503587 0.001506104718658396
29 0.0009697767237073604 0.004715361165666588 -0.0017729014633432465
22 0.01476421388166951 -0.009863817143058062 0.002082015249536317
17 -0.0014770616151874674 0.0019126889813390242 0.004391699618015007
26 0.006322253295062016 -0.001954847399290119 -0.0023138941959388623
27 0.0013493863288607643 0.0025203003818735927 -0.0008052798583805584
16 0.0009695487907679917 0.0032019751575121332 0.0027364689889100404

Bonds

1 3 1 3
2 8 1 12
3 1 3 7
4 2 7 11
5 1 19 20
6 2 19 23
7 7 24 28
8 6 24 1
9 1 18 19
10 5 18 24
11 1 15 16
12 1 15 18
13 2 15 21
14 1 2 3
15 1 2 4
16 2 2 8
17 1 4 5
18 2 4 9
19 1 5 6
20 2 5 10
21 1 6 7
22 3 13 6
23 8 13 14
24 5 20 25
25 7 25 29
26 6 25 13
27 1 17 20
28 2 17 22
29 7 26 27
30 1 16 17
31 5 16 26

Angles

1 9 3 1 12
2 10 24 1 3
3 11 24 1 12
4 1 2 3 7
5 3 1 3 7
6 3 1 3 2
7 1 3 7 6
8 2 3 7 11
9 2 6 7 11
10 1 18 19 20
11 2 18 19 23
12 2 20 19 23
13 7 18 24 28
14 8 28 24 1
15 6 18 24 1
16 1 15 18 19
17 5 19 18 24
18 5 15 18 24
19 1 16 15 18
20 2 16 15 21
21 2 18 15 21
22 1 3 2 4
23 2 3 2 8
24 2 4 2 8
25 1 2 4 5
26 2 2 4 9
27 2 5 4 9
28 1 4 5 6
29 2 4 5 10
30 2 6 5 10
31 1 5 6 7
32 3 13 6 7
33 3 13 6 5
34 9 6 13 14
35 10 25 13 6
36 11 25 13 14
37 1 17 20 19
38 5 19 20 25
39 5 17 20 25
40 7 20 25 29
41 8 29 25 13
42 6 20 25 13
43 1 16 17 20
44 2 16 17 22
45 2 20 17 22
46 7 16 26 27
47 1 15 16 17
48 5 15 16 26
49 5 17 16 26

Dihedrals

1 4 24 1 3 7
2 4 24 1 3 2
3 3 2 3 7 6
4 3 2 3 7 11
5 3 7 3 2 8
6 3 1 3 7 6
7 3 1 3 2 4
8 3 1 3 7 11
9 3 1 3 2 8
10 4 7 3 1 12
11 4 2 3 1 12
12 3 3 7 6 5
13 3 18 19 20 25
14 3 23 19 20 25
15 3 20 19 18 24
16 3 23 19 18 24
17 2 18 24 1 3
18 2 28 24 1 3
19 6 28 24 1 12
20 2 18 24 1 12
21 3 15 18 19 20
22 3 15 18 19 23
23 3 19 18 15 21
24 1 19 18 24 28
25 1 15 18 24 28
26 1 19 18 24 1
27 1 15 18 24 1
28 3 16 15 18 19
29 3 18 15 16 26
30 3 21 15 16 26
31 3 16 15 18 24
32 3 21 15 18 24
33 3 3 2 4 5
34 3 4 2 3 7
35 3 3 2 4 9
36 3 8 2 4 9
37 3 2 4 5 6
38 3 2 4 5 10
39 3 5 4 2 8
40 3 9 4 5 10
41 3 4 5 6 7
42 3 6 5 4 9
43 3 5 6 7 11
44 3 7 6 5 10
45 3 13 6 7 3
46 3 13 6 5 4
47 3 13 6 7 11
48 3 13 6 5 10
49 4 7 6 13 14
50 4 5 6 13 14
51 4 25 13 6 7
52 4 25 13 6 5
53 3 17 20 19 18
54 3 17 20 19 23
55 3 19 20 17 22
56 1 19 20 25 29
57 1 17 20 25 29
58 1 19 20 25 13
59 1 17 20 25 13
60 2 20 25 13 6
61 2 29 25 13 6
62 6 29 25 13 14
63 2 20 25 13 14
64 3 16 17 20 19
65 3 20 17 16 26
66 3 22 17 16 26
67 3 16 17 20 25
68 3 22 17 20 25
69 1 15 16 26 27
70 1 17 16 26 27
71 3 15 16 17 20
72 3 17 16 15 18
73 3 15 16 17 22
74 3 17 16 15 21

Impropers

1 3 24 3 1 12
2 1 18 28 24 1
3 2 16 18 15 21
4 2 3 4 2 8
5 2 2 5 4 9
6 2 3 6 7 11
7 2 4 6 5 10
8 3 25 6 13 14
9 2 16 20 17 22
10 2 18 20 19 23
11 1 20 29 25 13

bond_react_props_internal # i_limit_tags i_react_tags

12 0 0
1 0 0
3 0 0
23 0 0
11 0 0
7 0 0
19 0 0
28 0 0
24 0 0
18 0 0
21 0 0
15 0 0
2 0 0
4 0 0
8 0 0
9 0 0
5 0 0
10 0 0
6 0 0
13 0 0
14 0 0
20 0 0
25 0 0
29 0 0
22 0 0
17 0 0
26 0 0
27 0 0
16 0 0

bond_react_stabilization_internal # i_statted_tags

12 1
1 1
3 1
23 1
11 1
7 1
19 1
28 1
24 1
18 1
21 1
15 1
2 1
4 1
8 1
9 1
5 1
10 1
6 1
13 1
14 1
20 1
25 1
29 1
22 1
17 1
26 1
27 1
16 1
