LAMMPS Description

     46  atoms
     46  bonds
     65  angles
     92  dihedrals
     11  impropers

     71  atom types
     807  bond types
     4248  angle types
     641  dihedral types
     38  improper types

  0.0 20 xlo xhi
  0.0 20 ylo yhi
  0.0 20 zlo zhi

Masses

1 12.01  # c
2 12.01  # c1
3 12.01  # c2
4 12.01  # c3
5 12.01  # ca
6 12.01  # cp
7 12.01  # cq
8 12.01  # cc
9 12.01  # cd
10 12.01  # ce
11 12.01  # cf
12 12.01  # cg
13 12.01  # ch
14 12.01  # cx
15 12.01  # cy
16 12.01  # cu
17 12.01  # cv
18 12.01  # cz
19 1.008  # h1
20 1.008  # h2
21 1.008  # h3
22 1.008  # h4
23 1.008  # h5
24 1.008  # ha
25 1.008  # hc
26 1.008  # hn
27 1.008  # ho
28 1.008  # hp
29 1.008  # hs
30 1.008  # hw
31 1.008  # hx
32 19.00  # f
33 35.45  # cl
34 79.90  # br
35 126.9  # i
36 14.01  # n
37 14.01  # n1
38 14.01  # n2
39 14.01  # n3
40 14.01  # n4
41 14.01  # na
42 14.01  # nb
43 14.01  # nc
44 14.01  # nd
45 14.01  # ne
46 14.01  # nf
47 14.01  # nh
48 14.01  # no
49 16.00  # o
50 16.00  # oh
51 16.00  # os
52 16.00  # ow
53 30.97  # p2
54 30.97  # p3
55 30.97  # p4
56 30.97  # p5
57 30.97  # pb
58 30.97  # pc
59 30.97  # pd
60 30.97  # pe
61 30.97  # pf
62 30.97  # px
63 30.97  # py
64 32.06  # s
65 32.06  # s2
66 32.06  # s4
67 32.06  # s6
68 32.06  # sh
69 32.06  # ss
70 32.06  # sx
71 32.06  # sy

Atoms  # full

1 1 47 -0.8202 2.849999964237213 0.7999999821186066 -0.07000000216066837
2 1 5 -0.23 4.900000095367432 1.7900000512599945 0.6700000166893005
3 1 5 0.1716 4.1999998688697815 0.7199999690055847 0.12000000104308128
4 1 5 -0.06 6.28000020980835 1.7100000381469727 0.8600000292062759
5 1 5 -0.23 6.9599997997283936 0.5499999970197678 0.4899999871850014
6 1 5 0.1716 6.269999742507935 -0.5299999937415123 -0.07000000216066837
7 1 5 -0.253 4.8899999260902405 -0.4399999976158142 -0.2500000037252903
8 1 24 0.13 4.370000064373016 2.7000001072883606 0.9700000286102295
9 1 24 0.127 6.819999814033508 2.540000081062317 1.289999932050705
10 1 24 0.13 8.040000200271606 0.4899999871850014 0.6400000303983688
11 1 24 0.13 4.350000023841858 -1.2800000607967377 -0.689999982714653
12 1 26 0.3883 2.409999966621399 1.6599999368190765 0.2199999988079071
13 1 47 -0.8202 6.940000057220459 -1.6599999368190765 -0.43000001460313797
14 1 26 0.3883 7.940000295639038 -1.6599999368190765 -0.27000000700354576
15 2 5 0.0115 -8.700000047683716 2.5299999117851257 -0.04999999888241291
16 2 5 -0.1576 -7.4400001764297485 3.149999976158142 -0.010000000474974513
17 2 5 0.0115 -6.290000081062317 2.3600000143051147 0.020000000949949026
18 2 5 -0.1936 -8.790000081062317 1.1400000005960464 -0.07000000216066837
19 2 5 0.012 -7.630000114440918 0.35999998450279236 -0.04000000189989805
20 2 5 -0.1936 -6.380000114440918 0.9700000286102295 0.010000000474974513
21 2 24 0.183 -9.610000252723694 3.1200000643730164 -0.07000000216066837
22 2 24 0.183 -5.31000018119812 2.8299999237060547 0.04999999888241291
23 2 24 0.183 -7.710000276565552 -0.7299999892711639 -0.04999999888241291
24 2 1 0.5898 -10.140000581741333 0.5000000074505806 -0.10999999940395355
25 2 1 0.5898 -5.130000114440918 0.1600000075995922 0.04000000189989805
26 2 1 0.6507 -7.310000061988831 4.650000035762787 0.010000000474974513
27 2 49 -0.537 -6.240000128746033 5.230000019073486 0.04999999888241291
28 2 49 -0.4731 -10.34000039100647 -0.7000000029802322 -0.13000000268220901
29 2 49 -0.4731 -5.099999904632568 -1.0599999874830246 0.03000000026077032
30 2 50 -0.6031 -8.429999947547913 5.320000052452087 -0.020000000949949026
31 2 27 0.456 -8.180000185966492 6.259999871253967 0.0
32 3 5 0.01 -8.669999837875366 2.5600001215934753 -0.04999999888241291
33 3 5 -0.190267 -7.409999966621399 3.1600001454353333 -0.010000000474974513
34 3 5 0.01 -6.269999742507935 2.3499999940395355 0.020000000949949026
35 3 5 -0.190267 -8.799999952316284 1.1699999868869781 -0.06000000052154064
36 3 5 0.01 -7.6499998569488525 0.3700000047683716 -0.04000000189989805
37 3 5 -0.190267 -6.380000114440918 0.9600000083446503 0.010000000474974513
38 3 24 0.181 -9.559999704360962 3.190000057220459 -0.07000000216066837
39 3 24 0.181 -5.2799999713897705 2.8099998831748962 0.04999999888241291
40 3 24 0.181 -7.739999890327454 -0.7100000232458115 -0.04999999888241291
41 3 1 0.587967 -10.160000324249268 0.560000017285347 -0.10999999940395355
42 3 1 0.587967 -5.1499998569488525 0.13000000268220901 0.04000000189989805
43 3 1 0.587967 -7.300000190734863 4.639999866485596 0.010000000474974513
44 3 49 -0.471767 -6.25 5.260000228881836 0.04999999888241291
45 3 49 -0.471767 -10.379999876022339 -0.6300000101327896 -0.13000000268220901
46 3 49 -0.471767 -5.139999985694885 -1.0899999737739563 0.03000000026077032

Bonds

1 184 1 3
2 157 2 3
3 157 2 4
4 157 3 7
5 157 4 5
6 157 5 6
7 157 6 7
8 184 6 13
9 455 1 12
10 172 2 8
11 172 4 9
12 172 5 10
13 172 7 11
14 455 13 14
15 157 15 16
16 157 15 18
17 157 16 17
18 208 16 26
19 157 17 20
20 157 18 19
21 208 18 24
22 157 19 20
23 208 20 25
24 368 24 28
25 368 25 29
26 368 26 27
27 369 26 30
28 172 15 21
29 172 17 22
30 172 19 23
31 458 30 31
32 157 32 33
33 157 32 35
34 157 33 34
35 208 33 43
36 157 34 37
37 157 35 36
38 208 35 41
39 157 36 37
40 208 37 42
41 368 41 45
42 368 42 46
43 368 43 44
44 172 32 38
45 172 34 39
46 172 36 40

Angles

1 611 2 3 7
2 611 2 4 5
3 611 3 2 4
4 611 3 7 6
5 611 4 5 6
6 611 5 6 7
7 611 15 16 17
8 611 15 18 19
9 611 16 15 18
10 611 16 17 20
11 611 17 20 19
12 611 18 19 20
13 611 32 33 34
14 611 32 35 36
15 611 33 32 35
16 611 33 34 37
17 611 34 37 36
18 611 35 36 37
19 625 2 4 9
20 625 3 2 8
21 625 3 7 11
22 625 4 2 8
23 625 4 5 10
24 625 5 4 9
25 625 6 5 10
26 625 6 7 11
27 625 16 15 21
28 625 16 17 22
29 625 18 15 21
30 625 18 19 23
31 625 20 17 22
32 625 20 19 23
33 625 33 32 38
34 625 33 34 39
35 625 35 32 38
36 625 35 36 40
37 625 37 34 39
38 625 37 36 40
39 637 1 3 2
40 637 5 6 13
41 637 1 3 7
42 637 7 6 13
43 659 15 18 24
44 659 19 18 24
45 659 17 20 25
46 659 19 20 25
47 659 15 16 26
48 659 17 16 26
49 659 32 35 41
50 659 36 35 41
51 659 34 37 42
52 659 36 37 42
53 659 32 33 43
54 659 34 33 43
55 787 16 26 27
56 787 18 24 28
57 787 20 25 29
58 787 33 43 44
59 787 35 41 45
60 787 37 42 46
61 788 16 26 30
62 1390 27 26 30
63 2670 3 1 12
64 2670 6 13 14
65 2846 26 30 31

Dihedrals

1 13 15 16 26 27
2 13 17 16 26 27
3 13 15 18 24 28
4 13 19 18 24 28
5 13 17 20 25 29
6 13 19 20 25 29
7 13 32 33 43 44
8 13 34 33 43 44
9 13 32 35 41 45
10 13 36 35 41 45
11 13 34 37 42 46
12 13 36 37 42 46
13 13 15 16 26 30
14 13 17 16 26 30
15 24 16 26 30 31
16 195 1 3 2 4
17 195 1 3 7 6
18 195 4 5 6 13
19 195 3 7 6 13
20 195 1 3 2 8
21 195 1 3 7 11
22 195 10 5 6 13
23 195 11 7 6 13
24 195 2 3 7 6
25 195 2 4 5 6
26 195 3 2 4 5
27 195 3 7 6 5
28 195 4 2 3 7
29 195 4 5 6 7
30 195 15 16 17 20
31 195 15 18 19 20
32 195 16 15 18 19
33 195 16 17 20 19
34 195 17 16 15 18
35 195 17 20 19 18
36 195 32 33 34 37
37 195 32 35 36 37
38 195 33 32 35 36
39 195 33 34 37 36
40 195 34 33 32 35
41 195 34 37 36 35
42 195 2 3 7 11
43 195 2 4 5 10
44 195 3 2 4 9
45 195 5 4 2 8
46 195 5 6 7 11
47 195 6 5 4 9
48 195 7 3 2 8
49 195 7 6 5 10
50 195 15 16 17 22
51 195 15 18 19 23
52 195 17 16 15 21
53 195 17 20 19 23
54 195 19 18 15 21
55 195 19 20 17 22
56 195 32 33 34 39
57 195 32 35 36 40
58 195 34 33 32 38
59 195 34 37 36 40
60 195 36 35 32 38
61 195 36 37 34 39
62 195 8 2 4 9
63 195 9 4 5 10
64 195 16 15 18 24
65 195 16 17 20 25
66 195 18 15 16 26
67 195 18 19 20 25
68 195 20 17 16 26
69 195 20 19 18 24
70 195 33 32 35 41
71 195 33 34 37 42
72 195 35 32 33 43
73 195 35 36 37 42
74 195 37 34 33 43
75 195 37 36 35 41
76 195 21 15 16 26
77 195 21 15 18 24
78 195 22 17 16 26
79 195 22 17 20 25
80 195 23 19 18 24
81 195 23 19 20 25
82 195 38 32 33 43
83 195 38 32 35 41
84 195 39 34 33 43
85 195 39 34 37 42
86 195 40 36 35 41
87 195 40 36 37 42
88 209 2 3 1 12
89 209 5 6 13 14
90 209 7 3 1 12
91 209 7 6 13 14
92 615 27 26 30 31

Impropers

1 2 16 27 26 30
2 3 2 5 4 9
3 3 3 4 2 8
4 3 3 6 7 11
5 3 4 6 5 10
6 3 16 18 15 21
7 3 16 20 17 22
8 3 18 20 19 23
9 3 33 35 32 38
10 3 33 37 34 39
11 3 35 37 36 40

